ITEM: TIMESTEP
0
ITEM: NUMBER OF ATOMS
114
ITEM: BOX BOUNDS xy xz yz pp pp pp
-6.8870603307942657e+00 1.3774120661588526e+01 -6.8870603307942657e+00
0.0000000000000000e+00 1.1928738407727785e+01 0.0000000000000000e+00
0.0000000000000000e+00 1.0000000000000000e+02 0.0000000000000000e+00
ITEM: ATOMS id type x y z xs ys zs 
1 1 0.724954 1.67421 11.585 0.122807 0.140351 0.11585 
2 2 0 0 13.17 0 0 0.1317 
3 2 0 0 10 0 0 0.1 
4 1 0.362477 4.81335 11.585 0.22807 0.403509 0.11585 
5 1 3.26229 3.55769 11.585 0.385965 0.298246 0.11585 
6 2 -0.362477 3.13914 13.17 0.105263 0.263158 0.1317 
7 2 2.53734 1.88349 13.17 0.263158 0.157895 0.1317 
8 2 -0.362477 3.13914 10 0.105263 0.263158 0.1 
9 2 2.53734 1.88349 10 0.263158 0.157895 0.1 
10 1 8.46991e-16 7.95249 11.585 0.333333 0.666667 0.11585 
11 1 2.89981 6.69684 11.585 0.491228 0.561404 0.11585 
12 2 -0.724954 6.27828 13.17 0.210526 0.526316 0.1317 
13 2 2.17486 5.02263 13.17 0.368421 0.421053 0.1317 
14 2 -0.724954 6.27828 10 0.210526 0.526316 0.1 
15 2 2.17486 5.02263 10 0.368421 0.421053 0.1 
16 1 5.79963 5.44118 11.585 0.649123 0.45614 0.11585 
17 1 3.62477 0.418552 11.585 0.280702 0.0350877 0.11585 
18 2 5.07468 3.76697 13.17 0.526316 0.315789 0.1317 
19 2 5.07468 3.76697 10 0.526316 0.315789 0.1 
20 1 -0.362477 11.0916 11.585 0.438596 0.929825 0.11585 
21 1 2.53734 9.83598 11.585 0.596491 0.824561 0.11585 
22 1 -2.53734 6.06901 11.585 0.0701754 0.508772 0.11585 
23 2 -1.08743 9.41743 13.17 0.315789 0.789474 0.1317 
24 2 1.81238 8.16177 13.17 0.473684 0.684211 0.1317 
25 2 -1.08743 9.41743 10 0.315789 0.789474 0.1 
26 2 1.81238 8.16177 10 0.473684 0.684211 0.1 
27 1 5.43715 8.58032 11.585 0.754386 0.719298 0.11585 
28 2 4.7122 6.90611 13.17 0.631579 0.578947 0.1317 
29 2 4.7122 6.90611 10 0.631579 0.578947 0.1 
30 1 8.33697 7.32466 11.585 0.912281 0.614035 0.11585 
31 1 6.16211 2.30204 11.585 0.54386 0.192982 0.11585 
32 2 7.61201 5.65046 13.17 0.789474 0.473684 0.1317 
33 2 5.43715 0.627828 13.17 0.421053 0.0526316 0.1317 
34 2 7.61201 5.65046 10 0.789474 0.473684 0.1 
35 2 5.43715 0.627828 10 0.421053 0.0526316 0.1 
36 1 -2.89981 9.20815 11.585 0.175439 0.77193 0.11585 
37 2 1.44991 11.3009 13.17 0.578947 0.947368 0.1317 
38 2 -3.62477 7.53394 13.17 0.0526316 0.631579 0.1317 
39 2 1.44991 11.3009 10 0.578947 0.947368 0.1 
40 2 -3.62477 7.53394 10 0.0526316 0.631579 0.1 
41 1 5.07468 11.7195 11.585 0.859649 0.982456 0.11585 
42 2 4.34972 10.0453 13.17 0.736842 0.842105 0.1317 
43 2 4.34972 10.0453 10 0.736842 0.842105 0.1 
44 2 7.24954 8.7896 13.17 0.894737 0.736842 0.1317 
45 2 7.24954 8.7896 10 0.894737 0.736842 0.1 
46 1 8.69944 4.18552 11.585 0.807018 0.350877 0.11585 
47 2 7.97449 2.51131 13.17 0.684211 0.210526 0.1317 
48 2 7.97449 2.51131 10 0.684211 0.210526 0.1 
49 2 -3.98725 10.6731 13.17 0.157895 0.894737 0.1317 
50 2 -3.98725 10.6731 10 0.157895 0.894737 0.1 
51 1 9.06192 1.04638 11.585 0.701754 0.0877193 0.11585 
52 2 10.5118 4.3948 13.17 0.947368 0.368421 0.1317 
53 2 10.5118 4.3948 10 0.947368 0.368421 0.1 
54 1 -5.79963 10.4638 11.585 0.0175439 0.877193 0.11585 
55 1 11.5993 2.92987 11.585 0.964912 0.245614 0.11585 
56 2 10.8743 1.25566 13.17 0.842105 0.105263 0.1317 
57 2 10.8743 1.25566 10 0.842105 0.105263 0.1 
58 3 0 0 17.73 0 0 0.1773 
59 4 1.08743 1.46493 19.315 0.140351 0.122807 0.19315 
60 4 1.08743 1.46493 16.145 0.140351 0.122807 0.16145 
61 3 0.362477 3.13914 17.73 0.157895 0.263158 0.1773 
62 3 2.89981 1.25566 17.73 0.263158 0.105263 0.1773 
63 4 1.44991 4.60407 19.315 0.298246 0.385965 0.19315 
64 4 3.98725 2.72059 19.315 0.403509 0.22807 0.19315 
65 4 1.44991 4.60407 16.145 0.298246 0.385965 0.16145 
66 4 3.98725 2.72059 16.145 0.403509 0.22807 0.16145 
67 3 0.724954 6.27828 17.73 0.315789 0.526316 0.1773 
68 3 3.26229 4.3948 17.73 0.421053 0.368421 0.1773 
69 4 1.81238 7.74322 19.315 0.45614 0.649123 0.19315 
70 4 4.34972 5.85973 19.315 0.561404 0.491228 0.19315 
71 4 -1.44991 3.34842 19.315 0.0350877 0.280702 0.19315 
72 4 1.81238 7.74322 16.145 0.45614 0.649123 0.16145 
73 4 4.34972 5.85973 16.145 0.561404 0.491228 0.16145 
74 4 -1.44991 3.34842 16.145 0.0350877 0.280702 0.16145 
75 3 5.79963 2.51131 17.73 0.526316 0.210526 0.1773 
76 4 6.88706 3.97625 19.315 0.666667 0.333333 0.19315 
77 4 6.88706 3.97625 16.145 0.666667 0.333333 0.16145 
78 3 1.08743 9.41743 17.73 0.473684 0.789474 0.1773 
79 3 3.62477 7.53394 17.73 0.578947 0.631579 0.1773 
80 3 -2.17486 5.02263 17.73 0.0526316 0.421053 0.1773 
81 4 2.17486 10.8824 19.315 0.614035 0.912281 0.19315 
82 4 4.7122 8.99887 19.315 0.719298 0.754386 0.19315 
83 4 -1.08743 6.48756 19.315 0.192982 0.54386 0.19315 
84 4 2.17486 10.8824 16.145 0.614035 0.912281 0.16145 
85 4 4.7122 8.99887 16.145 0.719298 0.754386 0.16145 
86 4 -1.08743 6.48756 16.145 0.192982 0.54386 0.16145 
87 3 6.16211 5.65046 17.73 0.684211 0.473684 0.1773 
88 4 7.24954 7.11539 19.315 0.824561 0.596491 0.19315 
89 4 7.24954 7.11539 16.145 0.824561 0.596491 0.16145 
90 3 8.69944 3.76697 17.73 0.789474 0.315789 0.1773 
91 4 9.78688 5.2319 19.315 0.929825 0.438596 0.19315 
92 4 6.52458 0.837104 19.315 0.508772 0.0701754 0.19315 
93 4 9.78688 5.2319 16.145 0.929825 0.438596 0.16145 
94 4 6.52458 0.837104 16.145 0.508772 0.0701754 0.16145 
95 3 3.98725 10.6731 17.73 0.736842 0.894737 0.1773 
96 3 -1.81238 8.16177 17.73 0.210526 0.684211 0.1773 
97 4 -0.724954 9.6267 19.315 0.350877 0.807018 0.19315 
98 4 -0.724954 9.6267 16.145 0.350877 0.807018 0.16145 
99 3 6.52458 8.7896 17.73 0.842105 0.736842 0.1773 
100 4 7.61201 10.2545 19.315 0.982456 0.859649 0.19315 
101 4 7.61201 10.2545 16.145 0.982456 0.859649 0.16145 
102 3 9.06192 6.90611 17.73 0.947368 0.578947 0.1773 
103 3 8.33697 0.627828 17.73 0.631579 0.0526316 0.1773 
104 4 9.4244 2.09276 19.315 0.77193 0.175439 0.19315 
105 4 9.4244 2.09276 16.145 0.77193 0.175439 0.16145 
106 3 -1.44991 11.3009 17.73 0.368421 0.947368 0.1773 
107 4 -3.62477 8.37104 19.315 0.0877193 0.701754 0.19315 
108 4 -3.62477 8.37104 16.145 0.0877193 0.701754 0.16145 
109 3 11.2368 1.88349 17.73 0.894737 0.157895 0.1773 
110 3 -4.34972 10.0453 17.73 0.105263 0.842105 0.1773 
111 4 -3.26229 11.5102 19.315 0.245614 0.964912 0.19315 
112 4 -3.26229 11.5102 16.145 0.245614 0.964912 0.16145 
113 4 11.9617 0.209276 19.315 0.877193 0.0175439 0.19315 
114 4 11.9617 0.209276 16.145 0.877193 0.0175439 0.16145 
ITEM: TIMESTEP
24
ITEM: NUMBER OF ATOMS
114
ITEM: BOX BOUNDS xy xz yz pp pp pp
-6.8870603307942657e+00 1.3774120661588526e+01 -6.8870603307942657e+00
0.0000000000000000e+00 1.1928738407727785e+01 0.0000000000000000e+00
0.0000000000000000e+00 1.0000000000000000e+02 0.0000000000000000e+00
ITEM: ATOMS id type x y z xs ys zs 
1 1 0.726565 1.67276 11.2918 0.122863 0.140229 0.112918 
2 2 4.90658e-15 -7.65184e-16 12.8461 3.24144e-16 -6.41463e-17 0.128461 
3 2 2.12711e-15 -2.26985e-15 9.73908 5.92861e-17 -1.90284e-16 0.0973908 
4 1 0.364614 4.81233 11.287 0.228183 0.403424 0.11287 
5 1 3.26397 3.55818 11.2908 0.386107 0.298286 0.112908 
6 2 -0.356996 3.1391 12.8437 0.105659 0.263154 0.128437 
7 2 2.53887 1.88425 12.8437 0.263302 0.157959 0.128437 
8 2 -0.36019 3.13485 9.73668 0.105249 0.262798 0.0973668 
9 2 2.53646 1.88447 9.73752 0.263136 0.157978 0.0973752 
10 1 1.64047e-15 7.95249 11.2854 0.333333 0.666667 0.112854 
11 1 2.90233 6.69851 11.2868 0.491481 0.561544 0.112868 
12 2 -0.723904 6.27658 12.841 0.210531 0.526173 0.12841 
13 2 2.17833 5.02656 12.8412 0.368838 0.421382 0.128412 
14 2 -0.726379 6.27547 9.7325 0.210305 0.52608 0.097325 
15 2 2.17781 5.02272 9.73391 0.368639 0.42106 0.0973391 
16 1 5.79833 5.44142 11.292 0.649039 0.456161 0.11292 
17 1 3.62149 0.417341 11.2902 0.280413 0.0349862 0.112902 
18 2 5.0744 3.766 12.845 0.526255 0.315708 0.12845 
19 2 5.07805 3.76521 9.73909 0.526487 0.315642 0.0973909 
20 1 -0.365185 11.093 11.2868 0.438456 0.929937 0.112868 
21 1 2.53715 9.83834 11.287 0.596576 0.824759 0.11287 
22 1 -2.53715 6.06599 11.2868 0.0700629 0.508519 0.112868 
23 2 -1.08943 9.41737 12.841 0.315642 0.789469 0.12841 
24 2 1.81334 8.16353 12.841 0.473827 0.684358 0.12841 
25 2 -1.08915 9.42007 9.7325 0.315775 0.789695 0.097325 
26 2 1.81553 8.16194 9.7325 0.47392 0.684225 0.097325 
27 1 5.43774 8.58376 11.2902 0.754573 0.719587 0.112902 
28 2 4.71153 6.91124 12.8431 0.631745 0.579377 0.128431 
29 2 4.71577 6.90826 9.73648 0.631928 0.579128 0.0973648 
30 1 8.33655 7.32297 11.2908 0.912179 0.613893 0.112908 
31 1 6.16255 2.30079 11.292 0.543839 0.192878 0.11292 
32 2 7.61131 5.65118 12.845 0.789453 0.473745 0.12845 
33 2 5.43305 0.624681 12.8431 0.420623 0.0523678 0.128431 
34 2 7.6088 5.64841 9.73909 0.789155 0.473513 0.0973909 
35 2 5.43351 0.629842 9.73648 0.420872 0.0528004 0.0973648 
36 1 -2.90176 9.20681 11.287 0.175241 0.771817 0.11287 
37 2 1.44477 11.302 12.8412 0.578618 0.947456 0.128412 
38 2 -3.6231 7.52897 12.8412 0.0525444 0.631162 0.128412 
39 2 1.44835 11.3034 9.73391 0.57894 0.947579 0.0973391 
40 2 -3.62617 7.53134 9.73391 0.0524209 0.631361 0.0973391 
41 1 5.07513 11.7216 11.2918 0.859771 0.982634 0.112918 
42 2 4.34702 10.05 12.8437 0.736846 0.842505 0.128437 
43 2 4.3523 10.0494 9.73668 0.737202 0.842451 0.0973668 
44 2 7.24944 8.78788 12.8437 0.894658 0.736698 0.128437 
45 2 7.25083 8.78986 9.73752 0.894842 0.736864 0.0973752 
46 1 8.7003 4.18652 11.292 0.807122 0.350961 0.11292 
47 2 7.97547 2.51156 12.845 0.684292 0.210547 0.12845 
48 2 7.97433 2.51512 9.73909 0.684358 0.210845 0.0973909 
49 2 -3.99002 10.6684 12.8437 0.157495 0.894341 0.128437 
50 2 -3.99211 10.6732 9.73668 0.157549 0.894751 0.0973668 
51 1 9.06066 1.04759 11.2908 0.701714 0.0878208 0.112908 
52 2 10.5166 4.39282 12.8431 0.947632 0.368255 0.128431 
53 2 10.5119 4.39063 9.73648 0.9472 0.368072 0.0973648 
54 1 -5.80169 10.4631 11.2918 0.0173661 0.877137 0.112918 
55 1 11.6019 2.92763 11.2902 0.965014 0.245427 0.112902 
56 2 10.8729 1.2566 12.8437 0.842041 0.105342 0.128437 
57 2 10.8739 1.25441 9.73752 0.842022 0.105158 0.0973752 
58 3 7.83784e-15 -6.04645e-15 18.0218 3.15586e-16 -5.06881e-16 0.180218 
59 4 1.08708 1.46123 19.5765 0.14017 0.122496 0.195765 
60 4 1.08691 1.46548 16.4701 0.140336 0.122853 0.164701 
61 3 0.359707 3.13678 18.0254 0.157595 0.26296 0.180254 
62 3 2.89989 1.25574 18.0235 0.263167 0.10527 0.180235 
63 4 1.44818 4.59883 19.5804 0.297901 0.385525 0.195804 
64 4 3.9875 2.71994 19.5773 0.4035 0.228016 0.195773 
65 4 1.44439 4.60264 16.4729 0.297785 0.385845 0.164729 
66 4 3.98422 2.72123 16.4712 0.403316 0.228124 0.164712 
67 3 0.724938 6.27705 18.0292 0.315737 0.526213 0.180292 
68 3 3.25962 4.39303 18.0259 0.420785 0.368273 0.180259 
69 4 1.81452 7.74397 19.5825 0.456327 0.649186 0.195825 
70 4 4.35243 5.85501 19.5784 0.561402 0.490833 0.195784 
71 4 -1.45131 3.34871 19.5792 0.034998 0.280726 0.195792 
72 4 1.81307 7.74125 16.4741 0.456108 0.648958 0.164741 
73 4 4.34697 5.8567 16.4718 0.561076 0.490974 0.164718 
74 4 -1.45446 3.34994 16.4725 0.0348213 0.280829 0.164725 
75 3 5.79942 2.51251 18.0228 0.526351 0.210627 0.180228 
76 4 6.88706 3.97625 19.5745 0.666667 0.333333 0.195745 
77 4 6.88706 3.97625 16.468 0.666667 0.333333 0.16468 
78 3 1.0885 9.41803 18.0292 0.473787 0.789524 0.180292 
79 3 3.62594 7.53102 18.0271 0.57891 0.631334 0.180271 
80 3 -2.17798 5.02307 18.0271 0.0524242 0.42109 0.180271 
81 4 2.18026 10.8835 19.5804 0.614475 0.912375 0.195804 
82 4 4.71265 8.99751 19.5792 0.719274 0.754272 0.195792 
83 4 -1.08785 6.48534 19.5825 0.192859 0.543673 0.195825 
84 4 2.17886 10.8783 16.4729 0.614155 0.91194 0.164729 
85 4 4.71316 8.99417 16.4725 0.719171 0.753992 0.164725 
86 4 -1.08948 6.48795 16.4741 0.19285 0.543892 0.164741 
87 3 6.16325 5.65004 18.0228 0.684276 0.473649 0.180228 
88 4 7.24885 7.1155 19.5773 0.824516 0.5965 0.195773 
89 4 7.25161 7.11769 16.4712 0.824808 0.596684 0.164712 
90 3 8.69851 3.76619 18.0228 0.789373 0.315724 0.180228 
91 4 9.78143 5.23192 19.5784 0.92943 0.438598 0.195784 
92 4 6.52732 0.841809 19.5784 0.509167 0.0705698 0.195784 
93 4 9.78563 5.23581 16.4718 0.929898 0.438924 0.164718 
94 4 6.52859 0.836234 16.4718 0.509026 0.0701025 0.164718 
95 3 3.99068 10.6719 18.0254 0.73704 0.894635 0.180254 
96 3 -1.81344 8.1624 18.0292 0.210476 0.684263 0.180292 
97 4 -0.726669 9.62817 19.5825 0.350814 0.807141 0.195825 
98 4 -0.723592 9.62828 16.4741 0.351042 0.80715 0.164741 
99 3 6.52462 8.78949 18.0235 0.842103 0.736833 0.180235 
100 4 7.60898 10.2567 19.5765 0.982326 0.85983 0.195765 
101 4 7.61275 10.2547 16.4701 0.982517 0.859664 0.164701 
102 3 9.06173 6.90931 18.0259 0.947488 0.579215 0.180259 
103 3 8.33983 0.626399 18.0259 0.631727 0.0525117 0.180259 
104 4 9.42484 2.0933 19.5773 0.771984 0.175484 0.195773 
105 4 9.42535 2.08982 16.4712 0.771876 0.175192 0.164712 
106 3 -1.44796 11.3034 18.0271 0.368666 0.947576 0.180271 
107 4 -3.62845 8.37516 19.5804 0.0876246 0.702099 0.195804 
108 4 -3.62325 8.37654 16.4729 0.0880596 0.702215 0.164729 
109 3 11.2367 1.88351 18.0235 0.89473 0.157897 0.180235 
110 3 -4.35038 10.0488 18.0254 0.105365 0.842405 0.180254 
111 4 -3.26133 11.5113 19.5792 0.245728 0.965002 0.195792 
112 4 -3.2587 11.5134 16.4725 0.246008 0.965179 0.164725 
113 4 11.9651 0.210825 19.5765 0.877504 0.0176737 0.195765 
114 4 11.9615 0.208554 16.4701 0.877147 0.0174833 0.164701 
