ITEM: TIMESTEP
0
ITEM: NUMBER OF ATOMS
11908
ITEM: BOX BOUNDS xy xz yz pp pp ff
-6.7097817399999997e+01 1.3419563479999999e+02 -6.7097817399999997e+01
0.0000000000000000e+00 1.1621682882000000e+02 0.0000000000000000e+00
0.0000000000000000e+00 1.0000000000000000e+02 0.0000000000000000e+00
ITEM: ATOMS id type x y z xs ys zs 
1 1 0 0 10 0 0 0.1 
2 1 0.72124 1.2232 10 0.0106371 0.0105251 0.1 
3 1 2.14118 1.21019 10 0.0211622 0.0104132 0.1 
4 1 0.0225387 2.45941 10 0.0107491 0.0211622 0.1 
5 1 2.86242 2.43338 10 0.0317994 0.0209383 0.1 
6 1 0.743778 3.68261 10 0.0213862 0.0316874 0.1 
7 1 4.28236 2.42037 10 0.0423245 0.0208263 0.1 
8 1 2.16372 3.66959 10 0.0319113 0.0315754 0.1 
9 1 5.0036 3.64357 10 0.0529616 0.0313515 0.1 
10 1 2.88496 4.89279 10 0.0425484 0.0421005 0.1 
12 1 0.0450775 4.91882 10 0.0214982 0.0423245 0.1 
13 1 0.766317 6.14202 10 0.0321353 0.0528496 0.1 
14 1 -1.3974 2.47242 10 0.000223939 0.0212742 0.1 
15 1 6.42354 3.63056 10 0.0634867 0.0312395 0.1 
16 1 4.3049 4.87978 10 0.0530736 0.0419886 0.1 
18 1 7.14478 4.85375 10 0.0741238 0.0417646 0.1 
19 1 5.02614 6.10298 10 0.0637107 0.0525137 0.1 
20 1 4.98106 1.18416 10 0.0422125 0.0101892 0.1 
21 1 2.18626 6.129 10 0.0426604 0.0527377 0.1 
22 1 2.9075 7.3522 10 0.0532975 0.0632628 0.1 
23 1 0.0676162 7.37823 10 0.0322472 0.0634867 0.1 
24 1 -2.0961 3.70863 10 0.000335909 0.0319113 0.1 
25 1 0.788856 8.60142 10 0.0428843 0.0740119 0.1 
26 1 -1.37486 4.93183 10 0.010973 0.0424365 0.1 
27 1 8.56472 4.84074 10 0.084649 0.0416527 0.1 
28 1 6.44608 6.08996 10 0.0742358 0.0524017 0.1 
29 1 6.401 1.17115 10 0.0527377 0.0100773 0.1 
30 1 9.28596 6.06394 10 0.0952861 0.0521778 0.1 
31 1 7.16732 7.31316 10 0.0848729 0.0629269 0.1 
32 1 7.12224 2.39435 10 0.0633748 0.0206024 0.1 
33 1 4.32744 7.33919 10 0.0638226 0.0631508 0.1 
34 1 5.04868 8.56239 10 0.0744597 0.073676 0.1 
35 1 2.2088 8.58841 10 0.0534095 0.0738999 0.1 
36 1 2.93004 9.81161 10 0.0640466 0.084425 0.1 
37 1 0.0901549 9.83764 10 0.0429963 0.084649 0.1 
38 1 -2.07356 6.16804 10 0.011085 0.0530736 0.1 
39 1 0.811395 11.0608 10 0.0536334 0.0951741 0.1 
40 1 -1.35232 7.39124 10 0.0217221 0.0635987 0.1 
41 1 10.7059 6.05093 10 0.105811 0.0520658 0.1 
42 1 8.58726 7.30015 10 0.0953981 0.0628149 0.1 
43 1 8.54218 2.38133 10 0.0738999 0.0204904 0.1 
44 1 11.4271 7.27412 10 0.116448 0.062591 0.1 
45 1 9.3085 8.52335 10 0.106035 0.0733401 0.1 
46 1 9.26342 3.60453 10 0.084537 0.0310156 0.1 
47 1 6.46862 8.54937 10 0.0849849 0.073564 0.1 
48 1 7.18986 9.77257 10 0.095622 0.0840891 0.1 
49 1 4.34998 9.7986 10 0.0745717 0.0843131 0.1 
50 1 5.07122 11.0218 10 0.0852088 0.0948382 0.1 
51 1 2.23133 11.0478 10 0.0641585 0.0950621 0.1 
52 1 2.95257 12.271 10 0.0747957 0.105587 0.1 
53 1 0.112694 12.297 10 0.0537454 0.105811 0.1 
54 1 -2.05102 8.62745 10 0.0218341 0.0742358 0.1 
55 1 0.833933 13.5202 10 0.0643825 0.116336 0.1 
56 1 -1.32979 9.85065 10 0.0324712 0.0847609 0.1 
57 1 -3.4935 6.18105 10 0.000559848 0.0531855 0.1 
58 1 12.8471 7.26111 10 0.126973 0.062479 0.1 
59 1 10.7284 8.51034 10 0.11656 0.0732281 0.1 
60 1 10.6834 3.59152 10 0.0950621 0.0309036 0.1 
61 1 13.5683 8.48431 10 0.137611 0.0730041 0.1 
62 1 11.4497 9.73353 10 0.127197 0.0837532 0.1 
63 1 11.4046 4.81472 10 0.105699 0.0414287 0.1 
64 1 8.6098 9.75956 10 0.106147 0.0839772 0.1 
65 1 9.33104 10.9828 10 0.116784 0.0945023 0.1 
66 1 9.24088 1.14512 10 0.0737879 0.00985332 0.1 
67 1 6.49116 11.0088 10 0.095734 0.0947262 0.1 
68 1 7.2124 12.232 10 0.106371 0.105251 0.1 
69 1 4.37251 12.258 10 0.0853208 0.105475 0.1 
70 1 5.09375 13.4812 10 0.0959579 0.116 0.1 
71 1 2.25387 13.5072 10 0.0749076 0.116224 0.1 
72 1 2.97511 14.7304 10 0.0855447 0.12675 0.1 
73 1 0.135232 14.7565 10 0.0644945 0.126973 0.1 
74 1 -2.02849 11.0869 10 0.0325831 0.0953981 0.1 
75 1 0.856472 15.9797 10 0.0751316 0.137499 0.1 
76 1 -1.30725 12.3101 10 0.0432202 0.105923 0.1 
77 1 -4.1922 7.41726 10 0.000671817 0.0638226 0.1 
78 1 -3.47097 8.64046 10 0.0113089 0.0743478 0.1 
79 1 14.9883 8.4713 10 0.148136 0.0728922 0.1 
80 1 12.8696 9.72052 10 0.137723 0.0836412 0.1 
81 1 12.8245 4.8017 10 0.116224 0.0413168 0.1 
82 1 15.7095 9.6945 10 0.158773 0.0834173 0.1 
83 1 13.5909 10.9437 10 0.14836 0.0941664 0.1 
84 1 13.5458 6.0249 10 0.126861 0.0518419 0.1 
85 1 10.751 10.9697 10 0.127309 0.0943903 0.1 
86 1 11.4722 12.1929 10 0.137946 0.104915 0.1 
87 1 10.6608 1.13211 10 0.0843131 0.00974135 0.1 
88 1 11.3821 2.35531 10 0.0949502 0.0202665 0.1 
89 1 8.63234 12.219 10 0.116896 0.105139 0.1 
90 1 9.35358 13.4422 10 0.127533 0.115665 0.1 
91 1 6.51369 13.4682 10 0.106483 0.115888 0.1 
92 1 7.23493 14.6914 10 0.11712 0.126414 0.1 
93 1 4.39505 14.7174 10 0.0960699 0.126638 0.1 
94 1 5.11629 15.9406 10 0.106707 0.137163 0.1 
95 1 2.27641 15.9666 10 0.0856567 0.137387 0.1 
96 1 2.99765 17.1898 10 0.0962938 0.147912 0.1 
97 1 0.157771 17.2159 10 0.0752435 0.148136 0.1 
98 1 -2.00595 13.5463 10 0.0433322 0.11656 0.1 
99 1 0.879011 18.4391 10 0.0858806 0.158661 0.1 
100 1 -1.28471 14.7695 10 0.0539693 0.127085 0.1 
101 1 -4.16967 9.87667 10 0.0114209 0.0849849 0.1 
102 1 -3.44843 11.0999 10 0.022058 0.09551 0.1 
103 1 17.1294 9.68148 10 0.169298 0.0833053 0.1 
104 1 15.0108 10.9307 10 0.158885 0.0940544 0.1 
105 1 14.9657 6.01189 10 0.137387 0.0517299 0.1 
106 1 17.8507 10.9047 10 0.179935 0.0938305 0.1 
107 1 15.732 12.1539 10 0.169522 0.10458 0.1 
108 1 15.687 7.23509 10 0.148024 0.0622551 0.1 
109 1 12.8922 12.1799 10 0.148472 0.104803 0.1 
110 1 13.6134 13.4031 10 0.159109 0.115329 0.1 
111 1 12.802 2.34229 10 0.105475 0.0201545 0.1 
112 1 13.5232 3.56549 10 0.116112 0.0306797 0.1 
113 1 10.7735 13.4292 10 0.138058 0.115553 0.1 
114 1 11.4948 14.6524 10 0.148696 0.126078 0.1 
115 1 8.65487 14.6784 10 0.127645 0.126302 0.1 
116 1 9.37611 15.9016 10 0.138282 0.136827 0.1 
117 1 6.53623 15.9276 10 0.117232 0.137051 0.1 
118 1 7.25747 17.1508 10 0.127869 0.147576 0.1 
119 1 4.41759 17.1768 10 0.106819 0.1478 0.1 
120 1 5.13883 18.4 10 0.117456 0.158325 0.1 
121 1 2.29895 18.426 10 0.0964058 0.158549 0.1 
122 1 3.02019 19.6492 10 0.107043 0.169074 0.1 
123 1 0.18031 19.6753 10 0.0859926 0.169298 0.1 
124 1 -1.98341 16.0057 10 0.0540813 0.137723 0.1 
125 1 0.901549 20.8985 10 0.0966297 0.179823 0.1 
126 1 -1.26217 17.2289 10 0.0647184 0.148248 0.1 
127 1 -4.14713 12.3361 10 0.02217 0.106147 0.1 
128 1 -3.42589 13.5593 10 0.0328071 0.116672 0.1 
129 1 -5.58961 9.88969 10 0.000895756 0.0850969 0.1 
130 1 19.2706 10.8917 10 0.19046 0.0937185 0.1 
131 1 17.152 12.1409 10 0.180047 0.104468 0.1 
132 1 17.1069 7.22207 10 0.158549 0.0621431 0.1 
133 1 19.9919 12.1149 10 0.201097 0.104244 0.1 
134 1 17.8732 13.3641 10 0.190684 0.114993 0.1 
135 1 17.8281 8.44527 10 0.169186 0.0726682 0.1 
136 1 15.0333 13.3901 10 0.169634 0.115217 0.1 
137 1 15.7546 14.6133 10 0.180271 0.125742 0.1 
138 1 14.9432 3.55248 10 0.126638 0.0305677 0.1 
139 1 15.6644 4.77568 10 0.137275 0.0410928 0.1 
140 1 12.9147 14.6393 10 0.159221 0.125966 0.1 
141 1 13.6359 15.8625 10 0.169858 0.136491 0.1 
142 1 13.5007 1.10608 10 0.105363 0.00951741 0.1 
143 1 10.7961 15.8886 10 0.148808 0.136715 0.1 
144 1 11.5173 17.1118 10 0.159445 0.14724 0.1 
145 1 8.67741 17.1378 10 0.138394 0.147464 0.1 
146 1 9.39865 18.361 10 0.149031 0.157989 0.1 
147 1 6.55877 18.387 10 0.127981 0.158213 0.1 
148 1 7.28001 19.6102 10 0.138618 0.168738 0.1 
149 1 4.44013 19.6362 10 0.117568 0.168962 0.1 
150 1 5.16137 20.8594 10 0.128205 0.179487 0.1 
151 1 2.32149 20.8855 10 0.107155 0.179711 0.1 
152 1 3.04273 22.1087 10 0.117792 0.190236 0.1 
153 1 0.202849 22.1347 10 0.0967417 0.19046 0.1 
154 1 -1.96087 18.4651 10 0.0648304 0.158885 0.1 
155 1 0.924088 23.3579 10 0.107379 0.200985 0.1 
156 1 -1.23963 19.6883 10 0.0754675 0.16941 0.1 
157 1 -4.12459 14.7955 10 0.032919 0.127309 0.1 
158 1 -3.40335 16.0187 10 0.0435562 0.137835 0.1 
159 1 -6.28831 11.1259 10 0.00100773 0.095734 0.1 
160 1 -5.56707 12.3491 10 0.0116448 0.106259 0.1 
161 1 21.4118 12.1019 10 0.211622 0.104132 0.1 
162 1 19.2932 13.3511 10 0.201209 0.114881 0.1 
163 1 19.2481 8.43226 10 0.179711 0.0725563 0.1 
164 1 22.133 13.3251 10 0.22226 0.114657 0.1 
165 1 20.0144 14.5743 10 0.211846 0.125406 0.1 
166 1 19.9693 9.65546 10 0.190348 0.0830814 0.1 
167 1 17.1745 14.6003 10 0.190796 0.12563 0.1 
168 1 17.8958 15.8235 10 0.201433 0.136155 0.1 
169 1 17.0844 4.76266 10 0.1478 0.0409809 0.1 
170 1 17.8056 5.98586 10 0.158437 0.051506 0.1 
171 1 15.0559 15.8495 10 0.180383 0.136379 0.1 
172 1 15.7771 17.0727 10 0.19102 0.146904 0.1 
173 1 14.9206 1.09307 10 0.115888 0.00940544 0.1 
174 1 15.6419 2.31627 10 0.126526 0.0199306 0.1 
175 1 12.9372 17.0987 10 0.16997 0.147128 0.1 
176 1 13.6585 18.3219 10 0.180607 0.157653 0.1 
177 1 10.8186 18.348 10 0.159557 0.157877 0.1 
178 1 11.5398 19.5712 10 0.170194 0.168402 0.1 
179 1 8.69995 19.5972 10 0.149143 0.168626 0.1 
180 1 9.42119 20.8204 10 0.159781 0.179151 0.1 
181 1 6.58131 20.8464 10 0.13873 0.179375 0.1 
182 1 7.30255 22.0696 10 0.149367 0.1899 0.1 
183 1 4.46267 22.0956 10 0.128317 0.190124 0.1 
184 1 5.18391 23.3188 10 0.138954 0.200649 0.1 
185 1 2.34403 23.3449 10 0.117904 0.200873 0.1 
186 1 3.06527 24.5681 10 0.128541 0.211398 0.1 
187 1 0.225387 24.5941 10 0.107491 0.211622 0.1 
188 1 -1.93833 20.9245 10 0.0755794 0.180047 0.1 
189 1 0.946627 25.8173 10 0.118128 0.222148 0.1 
190 1 -1.21709 22.1477 10 0.0862165 0.190572 0.1 
191 1 -4.10205 17.2549 10 0.0436681 0.148472 0.1 
192 1 -3.38081 18.4781 10 0.0543052 0.158997 0.1 
193 1 -6.26577 13.5853 10 0.0117568 0.116896 0.1 
194 1 -5.54453 14.8085 10 0.0223939 0.127421 0.1 
195 1 23.553 13.312 10 0.232785 0.114545 0.1 
196 1 21.4343 14.5613 10 0.222372 0.125294 0.1 
197 1 21.3893 9.64244 10 0.200873 0.0829694 0.1 
198 1 24.2742 14.5352 10 0.243422 0.12507 0.1 
199 1 22.1556 15.7845 10 0.233009 0.135819 0.1 
200 1 22.1105 10.8656 10 0.21151 0.0934946 0.1 
201 1 19.3157 15.8105 10 0.211958 0.136043 0.1 
202 1 20.0369 17.0337 10 0.222595 0.146568 0.1 
203 1 19.2255 5.97285 10 0.168962 0.051394 0.1 
204 1 19.9468 7.19605 10 0.179599 0.0619192 0.1 
205 1 17.1971 17.0597 10 0.201545 0.146792 0.1 
206 1 17.9183 18.2829 10 0.212182 0.157317 0.1 
207 1 17.0618 2.30326 10 0.137051 0.0198186 0.1 
208 1 17.7831 3.52645 10 0.147688 0.0303437 0.1 
209 1 15.0784 18.3089 10 0.191132 0.157541 0.1 
210 1 15.7997 19.5321 10 0.201769 0.168066 0.1 
211 1 12.9598 19.5582 10 0.180719 0.16829 0.1 
212 1 13.681 20.7814 10 0.191356 0.178815 0.1 
213 1 10.8411 20.8074 10 0.170306 0.179039 0.1 
214 1 11.5624 22.0306 10 0.180943 0.189564 0.1 
215 1 8.72249 22.0566 10 0.159893 0.189788 0.1 
216 1 9.44373 23.2798 10 0.17053 0.200314 0.1 
217 1 6.60385 23.3058 10 0.149479 0.200537 0.1 
218 1 7.32509 24.529 10 0.160116 0.211063 0.1 
219 1 4.48521 24.5551 10 0.139066 0.211287 0.1 
220 1 5.20645 25.7782 10 0.149703 0.221812 0.1 
221 1 2.36657 25.8043 10 0.128653 0.222036 0.1 
222 1 3.08781 27.0275 10 0.13929 0.232561 0.1 
223 1 0.247926 27.0535 10 0.11824 0.232785 0.1 
224 1 -1.91579 23.3839 10 0.0863285 0.201209 0.1 
225 1 0.969166 28.2767 10 0.128877 0.24331 0.1 
226 1 -1.19455 24.6071 10 0.0969656 0.211734 0.1 
227 1 -4.07951 19.7143 10 0.0544172 0.169634 0.1 
228 1 -3.35827 20.9375 10 0.0650543 0.180159 0.1 
229 1 -6.24323 16.0447 10 0.0225059 0.138058 0.1 
230 1 -5.52199 17.2679 10 0.033143 0.148584 0.1 
231 1 -7.68571 13.5983 10 0.00123166 0.117008 0.1 
232 1 25.6942 14.5222 10 0.253947 0.124958 0.1 
233 1 23.5755 15.7714 10 0.243534 0.135707 0.1 
234 1 23.5304 10.8526 10 0.222036 0.0933826 0.1 
235 1 26.4154 15.7454 10 0.264584 0.135483 0.1 
236 1 24.2968 16.9946 10 0.254171 0.146232 0.1 
237 1 24.2517 12.0758 10 0.232673 0.103908 0.1 
238 1 21.4569 17.0207 10 0.233121 0.146456 0.1 
239 1 22.1781 18.2439 10 0.243758 0.156981 0.1 
240 1 21.3667 7.18304 10 0.190124 0.0618072 0.1 
241 1 22.088 8.40623 10 0.200761 0.0723323 0.1 
242 1 19.3382 18.2699 10 0.222707 0.157205 0.1 
243 1 20.0595 19.4931 10 0.233345 0.16773 0.1 
244 1 19.203 3.51344 10 0.158213 0.0302318 0.1 
245 1 19.9242 4.73664 10 0.16885 0.0407569 0.1 
246 1 17.2196 19.5191 10 0.212294 0.167954 0.1 
247 1 17.9408 20.7423 10 0.222931 0.178479 0.1 
248 1 17.7605 1.06705 10 0.136939 0.0091815 0.1 
249 1 15.101 20.7683 10 0.201881 0.178703 0.1 
250 1 15.8222 21.9915 10 0.212518 0.189229 0.1 
251 1 12.9823 22.0176 10 0.191468 0.189452 0.1 
252 1 13.7036 23.2408 10 0.202105 0.199978 0.1 
253 1 10.8637 23.2668 10 0.181055 0.200202 0.1 
254 1 11.5849 24.49 10 0.191692 0.210727 0.1 
255 1 8.74503 24.516 10 0.170642 0.210951 0.1 
256 1 9.46627 25.7392 10 0.181279 0.221476 0.1 
257 1 6.62639 25.7652 10 0.160228 0.2217 0.1 
258 1 7.34763 26.9884 10 0.170866 0.232225 0.1 
259 1 4.50775 27.0145 10 0.149815 0.232449 0.1 
260 1 5.22899 28.2377 10 0.160452 0.242974 0.1 
261 1 2.38911 28.2637 10 0.139402 0.243198 0.1 
264 1 -1.89325 25.8433 10 0.0970776 0.222372 0.1 
266 1 -1.17201 27.0665 10 0.107715 0.232897 0.1 
267 1 -4.05697 22.1737 10 0.0651663 0.190796 0.1 
268 1 -3.33573 23.3969 10 0.0758034 0.201321 0.1 
269 1 -6.22069 18.5041 10 0.033255 0.159221 0.1 
270 1 -5.49945 19.7273 10 0.0438921 0.169746 0.1 
271 1 -8.38441 14.8345 10 0.00134363 0.127645 0.1 
272 1 -7.66317 16.0577 10 0.0119807 0.13817 0.1 
273 1 27.8353 15.7324 10 0.275109 0.135371 0.1 
274 1 25.7167 16.9816 10 0.264696 0.14612 0.1 
275 1 25.6716 12.0628 10 0.243198 0.103796 0.1 
276 1 28.5566 16.9556 10 0.285746 0.145896 0.1 
277 1 26.4379 18.2048 10 0.275333 0.156645 0.1 
278 1 26.3929 13.286 10 0.253835 0.114321 0.1 
279 1 23.5981 18.2309 10 0.254283 0.156869 0.1 
280 1 24.3193 19.4541 10 0.26492 0.167394 0.1 
281 1 23.5079 8.39322 10 0.211287 0.0722204 0.1 
282 1 24.2291 9.61642 10 0.221924 0.0827455 0.1 
283 1 21.4794 19.4801 10 0.24387 0.167618 0.1 
284 1 22.2007 20.7033 10 0.254507 0.178144 0.1 
285 1 21.3442 4.72363 10 0.179375 0.0406449 0.1 
286 1 22.0654 5.94682 10 0.190012 0.0511701 0.1 
287 1 19.3608 20.7293 10 0.233456 0.178367 0.1 
288 1 20.082 21.9525 10 0.244094 0.188893 0.1 
289 1 19.1805 1.05403 10 0.147464 0.00906953 0.1 
290 1 19.9017 2.27723 10 0.158101 0.0195947 0.1 
291 1 17.2421 21.9785 10 0.223043 0.189117 0.1 
292 1 17.9634 23.2017 10 0.23368 0.199642 0.1 
293 1 15.1235 23.2278 10 0.21263 0.199866 0.1 
294 1 15.8447 24.4509 10 0.223267 0.210391 0.1 
295 1 13.0049 24.477 10 0.202217 0.210615 0.1 
296 1 13.7261 25.7002 10 0.212854 0.22114 0.1 
297 1 10.8862 25.7262 10 0.191804 0.221364 0.1 
298 1 11.6074 26.9494 10 0.202441 0.231889 0.1 
299 1 8.76757 26.9754 10 0.181391 0.232113 0.1 
300 1 9.48881 28.1986 10 0.192028 0.242638 0.1 
301 1 6.64893 28.2246 10 0.170977 0.242862 0.1 
308 1 -1.87072 28.3027 10 0.107827 0.243534 0.1 
311 1 -4.03443 24.6331 10 0.0759154 0.211958 0.1 
312 1 -3.31319 25.8563 10 0.0865525 0.222483 0.1 
313 1 -6.19815 20.9635 10 0.044004 0.180383 0.1 
314 1 -5.47691 22.1867 10 0.0546411 0.190908 0.1 
315 1 -8.36187 17.2939 10 0.0120927 0.148808 0.1 
316 1 -7.64063 18.5171 10 0.0227298 0.159333 0.1 
317 1 29.9765 16.9426 10 0.296271 0.145784 0.1 
318 1 27.8579 18.1918 10 0.285858 0.156533 0.1 
319 1 27.8128 13.273 10 0.26436 0.114209 0.1 
320 1 30.6978 18.1658 10 0.306909 0.156309 0.1 
321 1 28.5791 19.415 10 0.296495 0.167059 0.1 
322 1 28.534 14.4962 10 0.274997 0.124734 0.1 
323 1 25.7392 19.441 10 0.275445 0.167282 0.1 
324 1 26.4605 20.6642 10 0.286082 0.177808 0.1 
325 1 25.6491 9.60341 10 0.232449 0.0826335 0.1 
326 1 26.3703 10.8266 10 0.243086 0.0931587 0.1 
327 1 23.6206 20.6903 10 0.265032 0.178032 0.1 
328 1 24.3418 21.9135 10 0.275669 0.188557 0.1 
329 1 23.4854 5.93381 10 0.200537 0.0510581 0.1 
330 1 24.2066 7.15701 10 0.211175 0.0615832 0.1 
331 1 21.502 21.9395 10 0.254619 0.188781 0.1 
332 1 22.2232 23.1627 10 0.265256 0.199306 0.1 
333 1 21.3216 2.26422 10 0.168626 0.0194827 0.1 
334 1 22.0429 3.48742 10 0.179263 0.0300078 0.1 
335 1 19.3833 23.1887 10 0.244206 0.19953 0.1 
336 1 20.1046 24.4119 10 0.254843 0.210055 0.1 
337 1 17.2647 24.4379 10 0.233792 0.210279 0.1 
338 1 17.9859 25.6611 10 0.24443 0.220804 0.1 
339 1 15.146 25.6872 10 0.223379 0.221028 0.1 
340 1 15.8673 26.9104 10 0.234016 0.231553 0.1 
341 1 13.0274 26.9364 10 0.212966 0.231777 0.1 
342 1 13.7486 28.1596 10 0.223603 0.242302 0.1 
343 1 10.9087 28.1856 10 0.202553 0.242526 0.1 
357 1 -4.0119 27.0925 10 0.0866644 0.233121 0.1 
358 1 -3.29066 28.3157 10 0.0973015 0.243646 0.1 
359 1 -6.17561 23.4229 10 0.0547531 0.201545 0.1 
360 1 -5.45437 24.6461 10 0.0653902 0.21207 0.1 
361 1 -8.33933 19.7533 10 0.0228418 0.16997 0.1 
362 1 -7.61809 20.9765 10 0.0334789 0.180495 0.1 
363 1 -9.78181 17.307 10 0.00156757 0.148919 0.1 
364 1 32.1177 18.1528 10 0.317434 0.156198 0.1 
365 1 29.9991 19.402 10 0.30702 0.166947 0.1 
366 1 29.954 14.4832 10 0.285522 0.124622 0.1 
367 1 32.8389 19.376 10 0.328071 0.166723 0.1 
368 1 30.7203 20.6252 10 0.317658 0.177472 0.1 
369 1 30.6752 15.7064 10 0.296159 0.135147 0.1 
370 1 27.8804 20.6512 10 0.296607 0.177696 0.1 
371 1 28.6017 21.8744 10 0.307244 0.188221 0.1 
372 1 27.7903 10.8136 10 0.253611 0.0930467 0.1 
373 1 28.5115 12.0368 10 0.264248 0.103572 0.1 
374 1 25.7618 21.9005 10 0.286194 0.188445 0.1 
375 1 26.483 23.1236 10 0.296831 0.19897 0.1 
376 1 25.6265 7.144 10 0.2217 0.0614713 0.1 
377 1 26.3478 8.3672 10 0.232337 0.0719964 0.1 
378 1 23.6431 23.1497 10 0.275781 0.199194 0.1 
379 1 24.3644 24.3729 10 0.286418 0.209719 0.1 
380 1 23.4628 3.4744 10 0.189788 0.0298959 0.1 
381 1 24.1841 4.6976 10 0.200425 0.040421 0.1 
382 1 21.5245 24.3989 10 0.265368 0.209943 0.1 
383 1 22.2457 25.6221 10 0.276005 0.220468 0.1 
384 1 22.0203 1.02801 10 0.168514 0.00884559 0.1 
385 1 19.4059 25.6481 10 0.254955 0.220692 0.1 
386 1 20.1271 26.8713 10 0.265592 0.231217 0.1 
387 1 17.2872 26.8973 10 0.244541 0.231441 0.1 
388 1 18.0085 28.1205 10 0.255179 0.241966 0.1 
389 1 15.1686 28.1466 10 0.234128 0.24219 0.1 
409 1 -6.15307 25.8824 10 0.0655022 0.222707 0.1 
410 1 -5.43184 27.1055 10 0.0761393 0.233233 0.1 
411 1 -8.31679 22.2128 10 0.0335909 0.191132 0.1 
412 1 -7.59555 23.436 10 0.044228 0.201657 0.1 
413 1 -10.4805 18.5432 10 0.00167954 0.159557 0.1 
414 1 -9.75927 19.7664 10 0.0123166 0.170082 0.1 
415 1 34.2589 19.363 10 0.338596 0.166611 0.1 
416 1 32.1402 20.6122 10 0.328183 0.17736 0.1 
417 1 32.0952 15.6934 10 0.306685 0.135035 0.1 
418 1 34.9801 20.5862 10 0.349233 0.177136 0.1 
419 1 32.8615 21.8354 10 0.33882 0.187885 0.1 
420 1 32.8164 16.9166 10 0.317322 0.14556 0.1 
421 1 30.0216 21.8614 10 0.31777 0.188109 0.1 
422 1 30.7428 23.0846 10 0.328407 0.198634 0.1 
423 1 29.9314 12.0238 10 0.274773 0.10346 0.1 
424 1 30.6527 13.247 10 0.28541 0.113985 0.1 
425 1 27.903 23.1106 10 0.307356 0.198858 0.1 
426 1 28.6242 24.3338 10 0.317994 0.209383 0.1 
427 1 27.7677 8.35418 10 0.242862 0.0718844 0.1 
428 1 28.489 9.57738 10 0.253499 0.0824096 0.1 
429 1 25.7843 24.3599 10 0.296943 0.209607 0.1 
430 1 26.5056 25.5831 10 0.30758 0.220132 0.1 
431 1 25.604 4.68459 10 0.210951 0.040309 0.1 
432 1 26.3252 5.90779 10 0.221588 0.0508342 0.1 
433 1 23.6657 25.6091 10 0.28653 0.220356 0.1 
434 1 24.3869 26.8323 10 0.297167 0.230881 0.1 
435 1 23.4403 1.01499 10 0.179039 0.00873362 0.1 
436 1 24.1615 2.23819 10 0.189676 0.0192588 0.1 
437 1 21.547 26.8583 10 0.276117 0.231105 0.1 
438 1 22.2683 28.0815 10 0.286754 0.24163 0.1 
439 1 19.4284 28.1075 10 0.265704 0.241854 0.1 
463 1 -6.13054 28.3418 10 0.0762513 0.24387 0.1 
465 1 -8.29425 24.6722 10 0.0443399 0.212294 0.1 
466 1 -7.57302 25.8954 10 0.054977 0.222819 0.1 
467 1 -10.458 21.0026 10 0.0124286 0.180719 0.1 
468 1 -9.73673 22.2258 10 0.0230657 0.191244 0.1 
469 1 36.4001 20.5732 10 0.359758 0.177024 0.1 
470 1 34.2814 21.8224 10 0.349345 0.187773 0.1 
471 1 34.2363 16.9036 10 0.327847 0.145448 0.1 
472 1 37.1213 21.7963 10 0.370395 0.187549 0.1 
473 1 35.0027 23.0456 10 0.359982 0.198298 0.1 
474 1 34.9576 18.1268 10 0.338484 0.155974 0.1 
475 1 32.1628 23.0716 10 0.338932 0.198522 0.1 
476 1 32.884 24.2948 10 0.349569 0.209047 0.1 
477 1 32.0726 13.234 10 0.295936 0.113873 0.1 
478 1 32.7939 14.4572 10 0.306573 0.124398 0.1 
479 1 30.0441 24.3208 10 0.328519 0.209271 0.1 
480 1 30.7654 25.544 10 0.339156 0.219796 0.1 
481 1 29.9089 9.56437 10 0.264024 0.0822976 0.1 
482 1 30.6301 10.7876 10 0.274661 0.0928228 0.1 
483 1 27.9255 25.57 10 0.318105 0.22002 0.1 
484 1 28.6467 26.7932 10 0.328743 0.230545 0.1 
485 1 27.7452 5.89477 10 0.232113 0.0507222 0.1 
486 1 28.4664 7.11797 10 0.24275 0.0612473 0.1 
487 1 25.8069 26.8193 10 0.307692 0.230769 0.1 
488 1 26.5281 28.0425 10 0.318329 0.241294 0.1 
489 1 25.5815 2.22518 10 0.200202 0.0191468 0.1 
490 1 26.3027 3.44838 10 0.210839 0.0296719 0.1 
491 1 23.6882 28.0685 10 0.297279 0.241518 0.1 
521 1 -8.27172 27.1316 10 0.055089 0.233456 0.1 
522 1 -7.55048 28.3548 10 0.0657261 0.243982 0.1 
523 1 -10.4354 23.462 10 0.0231777 0.201881 0.1 
524 1 -9.7142 24.6852 10 0.0338148 0.212406 0.1 
525 1 -11.8779 21.0156 10 0.00190348 0.180831 0.1 
526 1 38.5412 21.7833 10 0.38092 0.187437 0.1 
527 1 36.4226 23.0326 10 0.370507 0.198186 0.1 
528 1 36.3775 18.1137 10 0.349009 0.155862 0.1 
529 1 39.2625 23.0065 10 0.391557 0.197962 0.1 
530 1 37.1438 24.2558 10 0.381144 0.208711 0.1 
531 1 37.0988 19.3369 10 0.359646 0.166387 0.1 
532 1 34.304 24.2818 10 0.360094 0.208935 0.1 
533 1 35.0252 25.505 10 0.370731 0.21946 0.1 
534 1 34.2138 14.4441 10 0.317098 0.124286 0.1 
535 1 34.935 15.6673 10 0.327735 0.134811 0.1 
536 1 32.1853 25.531 10 0.349681 0.219684 0.1 
537 1 32.9066 26.7542 10 0.360318 0.230209 0.1 
538 1 32.0501 10.7746 10 0.285186 0.0927108 0.1 
539 1 32.7713 11.9978 10 0.295824 0.103236 0.1 
540 1 30.0667 26.7802 10 0.339268 0.230433 0.1 
541 1 30.7879 28.0034 10 0.349905 0.240958 0.1 
542 1 29.8864 7.10496 10 0.253275 0.0611354 0.1 
543 1 30.6076 8.32816 10 0.263912 0.0716605 0.1 
544 1 27.948 28.0295 10 0.328855 0.241182 0.1 
546 1 27.7226 3.43536 10 0.221364 0.02956 0.1 
547 1 28.4439 4.65856 10 0.232001 0.0400851 0.1 
550 1 26.2802 0.988969 10 0.20009 0.00850969 0.1 
583 1 -10.4129 25.9214 10 0.0339268 0.223043 0.1 
584 1 -9.69166 27.1446 10 0.0445639 0.233568 0.1 
585 1 -12.5766 22.2518 10 0.00201545 0.191468 0.1 
586 1 -11.8554 23.475 10 0.0126526 0.201993 0.1 
587 1 40.6824 22.9935 10 0.402083 0.19785 0.1 
588 1 38.5638 24.2427 10 0.391669 0.208599 0.1 
589 1 38.5187 19.3239 10 0.370171 0.166275 0.1 
590 1 41.4037 24.2167 10 0.41272 0.208375 0.1 
591 1 39.285 25.4659 10 0.402307 0.219124 0.1 
592 1 39.2399 20.5471 10 0.380808 0.1768 0.1 
593 1 36.4451 25.492 10 0.381256 0.219348 0.1 
594 1 37.1664 26.7152 10 0.391893 0.229873 0.1 
595 1 36.355 15.6543 10 0.33826 0.134699 0.1 
596 1 37.0762 16.8775 10 0.348897 0.145224 0.1 
597 1 34.3265 26.7412 10 0.370843 0.230097 0.1 
598 1 35.0477 27.9644 10 0.38148 0.240623 0.1 
599 1 34.1913 11.9847 10 0.306349 0.103124 0.1 
600 1 34.9125 13.2079 10 0.316986 0.113649 0.1 
601 1 32.2079 27.9904 10 0.36043 0.240846 0.1 
603 1 32.0275 8.31514 10 0.274437 0.0715485 0.1 
604 1 32.7488 9.53834 10 0.285074 0.0820737 0.1 
607 1 29.8638 4.64555 10 0.242526 0.0399731 0.1 
608 1 30.5851 5.86875 10 0.253163 0.0504983 0.1 
611 1 27.7001 0.975956 10 0.210615 0.00839772 0.1 
612 1 28.4213 2.19915 10 0.221252 0.0189229 0.1 
647 1 -10.3904 28.3808 10 0.0446758 0.244206 0.1 
649 1 -12.5541 24.7112 10 0.0127645 0.21263 0.1 
650 1 -11.8328 25.9344 10 0.0234016 0.223155 0.1 
651 1 42.8236 24.2037 10 0.423245 0.208263 0.1 
652 1 40.705 25.4529 10 0.412832 0.219012 0.1 
653 1 40.6599 20.5341 10 0.391334 0.176688 0.1 
654 1 43.5448 25.4269 10 0.433882 0.218788 0.1 
655 1 41.4262 26.6761 10 0.423469 0.229538 0.1 
656 1 41.3811 21.7573 10 0.401971 0.187213 0.1 
657 1 38.5863 26.7022 10 0.402419 0.229762 0.1 
658 1 39.3076 27.9254 10 0.413056 0.240287 0.1 
659 1 38.4962 16.8645 10 0.359422 0.145113 0.1 
660 1 39.2174 18.0877 10 0.370059 0.155638 0.1 
661 1 36.4677 27.9514 10 0.392005 0.240511 0.1 
663 1 36.3324 13.1949 10 0.327511 0.113537 0.1 
664 1 37.0537 14.4181 10 0.338148 0.124062 0.1 
667 1 34.1687 9.52533 10 0.2956 0.0819617 0.1 
668 1 34.89 10.7485 10 0.306237 0.0924868 0.1 
671 1 32.005 5.85574 10 0.263688 0.0503863 0.1 
672 1 32.7262 7.07893 10 0.274325 0.0609114 0.1 
675 1 29.8413 2.18614 10 0.231777 0.0188109 0.1 
676 1 30.5625 3.40934 10 0.242414 0.029336 0.1 
715 1 -12.5315 27.1706 10 0.0235136 0.233792 0.1 
716 1 -11.8103 28.3938 10 0.0341507 0.244318 0.1 
717 1 -13.974 24.7242 10 0.00223939 0.212742 0.1 
718 1 44.9648 25.4139 10 0.444407 0.218677 0.1 
719 1 42.8461 26.6631 10 0.433994 0.229426 0.1 
720 1 42.8011 21.7443 10 0.412496 0.187101 0.1 
721 1 45.686 26.6371 10 0.455044 0.229202 0.1 
722 1 43.5674 27.8863 10 0.444631 0.239951 0.1 
723 1 43.5223 22.9675 10 0.423133 0.197626 0.1 
724 1 40.7275 27.9123 10 0.423581 0.240175 0.1 
726 1 40.6373 18.0747 10 0.380584 0.155526 0.1 
727 1 41.3586 19.2979 10 0.391222 0.166051 0.1 
730 1 38.4736 14.4051 10 0.348673 0.12395 0.1 
731 1 39.1949 15.6283 10 0.35931 0.134475 0.1 
734 1 36.3099 10.7355 10 0.316762 0.0923749 0.1 
735 1 37.0311 11.9587 10 0.327399 0.1029 0.1 
738 1 34.1462 7.06592 10 0.284851 0.0607995 0.1 
739 1 34.8674 8.28912 10 0.295488 0.0713246 0.1 
742 1 31.9825 3.39633 10 0.252939 0.0292241 0.1 
743 1 32.7037 4.61952 10 0.263576 0.0397492 0.1 
746 1 30.54 0.94993 10 0.231665 0.00817378 0.1 
787 1 -14.6727 25.9604 10 0.00235136 0.223379 0.1 
788 1 -13.9515 27.1836 10 0.0129885 0.233904 0.1 
789 1 47.106 26.6241 10 0.465569 0.22909 0.1 
790 1 44.9873 27.8733 10 0.455156 0.239839 0.1 
791 1 44.9422 22.9545 10 0.433658 0.197514 0.1 
792 1 47.8272 27.8473 10 0.476206 0.239615 0.1 
794 1 45.6635 24.1777 10 0.444295 0.208039 0.1 
797 1 42.7785 19.2849 10 0.401747 0.165939 0.1 
798 1 43.4998 20.5081 10 0.412384 0.176464 0.1 
801 1 40.6148 15.6153 10 0.369835 0.134363 0.1 
802 1 41.336 16.8385 10 0.380473 0.144889 0.1 
805 1 38.4511 11.9457 10 0.337924 0.102788 0.1 
806 1 39.1723 13.1689 10 0.348561 0.113313 0.1 
809 1 36.2874 8.27611 10 0.306013 0.0712126 0.1 
810 1 37.0086 9.4993 10 0.31665 0.0817378 0.1 
813 1 34.1236 4.60651 10 0.274101 0.0396372 0.1 
814 1 34.8449 5.82971 10 0.284739 0.0501624 0.1 
817 1 31.9599 0.936918 10 0.24219 0.00806181 0.1 
818 1 32.6812 2.16012 10 0.252827 0.0185869 0.1 
861 1 -14.6502 28.4198 10 0.0131004 0.244541 0.1 
863 1 49.2471 27.8343 10 0.486732 0.239503 0.1 
865 1 47.0834 24.1647 10 0.45482 0.207927 0.1 
868 1 47.8047 25.3879 10 0.465457 0.218453 0.1 
871 1 44.9197 20.4951 10 0.422909 0.176352 0.1 
872 1 45.6409 21.7183 10 0.433546 0.186877 0.1 
875 1 42.756 16.8255 10 0.390998 0.144777 0.1 
876 1 43.4772 18.0487 10 0.401635 0.155302 0.1 
879 1 40.5923 13.1559 10 0.359086 0.113201 0.1 
880 1 41.3135 14.3791 10 0.369723 0.123726 0.1 
883 1 38.4285 9.48629 10 0.327175 0.0816258 0.1 
884 1 39.1498 10.7095 10 0.337812 0.0921509 0.1 
887 1 36.2648 5.8167 10 0.295264 0.0500504 0.1 
888 1 36.9861 7.0399 10 0.305901 0.0605755 0.1 
891 1 34.1011 2.1471 10 0.263352 0.018475 0.1 
892 1 34.8223 3.3703 10 0.273989 0.0290001 0.1 
939 1 -16.0701 28.4328 10 0.0025753 0.244653 0.1 
942 1 49.2246 25.3749 10 0.475983 0.218341 0.1 
945 1 49.9458 26.5981 10 0.48662 0.228866 0.1 
948 1 47.0609 21.7053 10 0.444071 0.186765 0.1 
949 1 47.7821 22.9285 10 0.454708 0.19729 0.1 
952 1 44.8972 18.0357 10 0.41216 0.15519 0.1 
953 1 45.6184 19.2589 10 0.422797 0.165715 0.1 
956 1 42.7334 14.3661 10 0.380249 0.123614 0.1 
957 1 43.4547 15.5893 10 0.390886 0.13414 0.1 
960 1 40.5697 10.6965 10 0.348337 0.092039 0.1 
961 1 41.291 11.9197 10 0.358974 0.102564 0.1 
964 1 38.406 7.02688 10 0.316426 0.0604636 0.1 
965 1 39.1272 8.25008 10 0.327063 0.0709887 0.1 
968 1 36.2423 3.35729 10 0.284515 0.0288881 0.1 
969 1 36.9635 4.58049 10 0.295152 0.0394133 0.1 
972 1 34.7998 0.910892 10 0.26324 0.00783787 0.1 
1023 1 51.3658 26.585 10 0.497145 0.228754 0.1 
1029 1 49.2021 22.9154 10 0.465233 0.197178 0.1 
1030 1 49.9233 24.1386 10 0.475871 0.207704 0.1 
1033 1 47.0383 19.2459 10 0.433322 0.165603 0.1 
1034 1 47.7596 20.469 10 0.443959 0.176128 0.1 
1037 1 44.8746 15.5763 10 0.401411 0.134028 0.1 
1038 1 45.5959 16.7995 10 0.412048 0.144553 0.1 
1041 1 42.7109 11.9067 10 0.369499 0.102452 0.1 
1042 1 43.4321 13.1299 10 0.380137 0.112977 0.1 
1045 1 40.5472 8.23707 10 0.337588 0.0708767 0.1 
1046 1 41.2684 9.46027 10 0.348225 0.0814019 0.1 
1049 1 38.3835 4.56747 10 0.305677 0.0393013 0.1 
1050 1 39.1047 5.79067 10 0.316314 0.0498264 0.1 
1053 1 36.2197 0.897879 10 0.273766 0.0077259 0.1 
1054 1 36.941 2.12108 10 0.284403 0.018251 0.1 
1113 1 51.3432 24.1256 10 0.486396 0.207592 0.1 
1114 1 52.0645 25.3488 10 0.497033 0.218117 0.1 
1117 1 49.1795 20.456 10 0.454484 0.176016 0.1 
1118 1 49.9008 21.6792 10 0.465121 0.186541 0.1 
1121 1 47.0158 16.7864 10 0.422573 0.144441 0.1 
1122 1 47.737 18.0096 10 0.43321 0.154966 0.1 
1125 1 44.8521 13.1168 10 0.390662 0.112865 0.1 
1126 1 45.5733 14.34 10 0.401299 0.12339 0.1 
1129 1 42.6884 9.44725 10 0.35875 0.0812899 0.1 
1130 1 43.4096 10.6705 10 0.369388 0.091815 0.1 
1133 1 40.5246 5.77766 10 0.326839 0.0497145 0.1 
1134 1 41.2459 7.00086 10 0.337476 0.0602396 0.1 
1137 1 38.3609 2.10806 10 0.294928 0.0181391 0.1 
1138 1 39.0822 3.33126 10 0.305565 0.0286642 0.1 
1204 1 51.3207 21.6662 10 0.475647 0.186429 0.1 
1205 1 52.0419 22.8894 10 0.486284 0.196954 0.1 
1208 1 49.157 17.9966 10 0.443735 0.154854 0.1 
1209 1 49.8782 19.2198 10 0.454372 0.165379 0.1 
1212 1 46.9933 14.327 10 0.411824 0.123278 0.1 
1213 1 47.7145 15.5502 10 0.422461 0.133804 0.1 
1216 1 44.8295 10.6574 10 0.379913 0.0917031 0.1 
1217 1 45.5508 11.8806 10 0.39055 0.102228 0.1 
1220 1 42.6658 6.98784 10 0.348001 0.0601276 0.1 
1221 1 43.3871 8.21104 10 0.358638 0.0706528 0.1 
1224 1 40.5021 3.31825 10 0.31609 0.0285522 0.1 
1225 1 41.2233 4.54145 10 0.326727 0.0390774 0.1 
1228 1 39.0596 0.871854 10 0.294816 0.00750196 0.1 
1295 1 53.4619 22.8764 10 0.496809 0.196842 0.1 
1299 1 51.2982 19.2068 10 0.464898 0.165267 0.1 
1300 1 52.0194 20.43 10 0.475535 0.175792 0.1 
1303 1 49.1344 15.5372 10 0.432986 0.133692 0.1 