 written on 18Nov2020 at 17:20:51 
           8
         149
    1    1    2    2    1    1    1    1    1    2    1    1    1    1    1
    1    1    1    1    2    1    1    1    1    1    1    1    1    1    1
    1    1    1    1    1    1    1    1    1    1    1    1    1    1    1
    1    1    1    1    1    1    1    1    1    1    1    1    1    1    1
    1    1    1    1    1    1    1    1    2    1    1    1    1    1    1
    1    1    1    1    1    2    1    1    1    1    1    1    1    1    1
    1    1    1    1    1    1    1    1    1    1    1    1    1    1    1
    1    1    1    1    1    1    1    1    1    1    1    1    1    1    1
    1    1    1    1    1    1    1    1    1    2    1    1    1    1    1
    1    1    1    1    2    1    1    1    1    1    2    2    1    1
   -7   -4    0    1    1   -0.000159    0.000012
   -7   -4    0    2    1    0.002117   -0.000461
   -7   -4    0    3    1   -0.000670    0.000580
   -7   -4    0    4    1    0.001123   -0.000400
   -7   -4    0    5    1   -0.002000   -0.000523
   -7   -4    0    6    1    0.001677   -0.000709
   -7   -4    0    7    1   -0.003182    0.003377
   -7   -4    0    8    1    0.001759    0.000488
   -7   -4    0    1    2   -0.002754   -0.001294
   -7   -4    0    2    2   -0.002981    0.000522
   -7   -4    0    3    2    0.000362   -0.002334
   -7   -4    0    4    2   -0.001151   -0.001837
   -7   -4    0    5    2    0.003619   -0.001604
   -7   -4    0    6    2   -0.001372   -0.000145
   -7   -4    0    7    2    0.004310    0.000678
   -7   -4    0    8    2   -0.000049   -0.004005
   -7   -4    0    1    3    0.001890    0.002224
   -7   -4    0    2    3   -0.001336    0.003848
   -7   -4    0    3    3    0.000295   -0.002187
   -7   -4    0    4    3    0.000621    0.001762
   -7   -4    0    5    3    0.001519   -0.000636
   -7   -4    0    6    3   -0.001020    0.004464
   -7   -4    0    7    3   -0.002112   -0.004036
   -7   -4    0    8    3   -0.001385    0.002391
   -7   -4    0    1    4   -0.000254   -0.001113
   -7   -4    0    2    4    0.003621    0.003922
   -7   -4    0    3    4   -0.003149   -0.001000
   -7   -4    0    4    4   -0.001851    0.000578
   -7   -4    0    5    4   -0.000838   -0.006097
   -7   -4    0    6    4    0.004381    0.002032
   -7   -4    0    7    4   -0.004080    0.001377
   -7   -4    0    8    4   -0.002184    0.000075
   -7   -4    0    1    5    0.003828    0.000613
   -7   -4    0    2    5    0.000564   -0.001414
   -7   -4    0    3    5    0.000994    0.000597
   -7   -4    0    4    5    0.002135    0.001293
   -7   -4    0    5    5   -0.000899    0.003766
   -7   -4    0    6    5    0.001046   -0.000451
   -7   -4    0    7    5   -0.003587    0.001407
   -7   -4    0    8    5    0.002141    0.003898
   -7   -4    0    1    6   -0.003712   -0.003322
   -7   -4    0    2    6    0.000691   -0.001717
   -7   -4    0    3    6   -0.000661    0.000801
   -7   -4    0    4    6   -0.000155   -0.002507
   -7   -4    0    5    6    0.000499   -0.000639
   -7   -4    0    6    6    0.000809   -0.003162
   -7   -4    0    7    6    0.002494    0.004253
   -7   -4    0    8    6    0.001528   -0.004339
   -7   -4    0    1    7    0.000461    0.001214
   -7   -4    0    2    7   -0.000331   -0.004028
   -7   -4    0    3    7    0.001449    0.002795
   -7   -4    0    4    7   -0.001513   -0.002465
   -7   -4    0    5    7   -0.002787    0.002880
   -7   -4    0    6    7   -0.002132   -0.002273
   -7   -4    0    7    7    0.008707    0.000521
   -7   -4    0    8    7   -0.002287   -0.002135
   -7   -4    0    1    8   -0.000659   -0.001054
   -7   -4    0    2    8    0.005491    0.002710
   -7   -4    0    3    8   -0.003403    0.000773
   -7   -4    0    4    8   -0.001398    0.000449
   -7   -4    0    5    8   -0.003220   -0.005736
   -7   -4    0    6    8    0.005537    0.000018
   -7   -4    0    7    8   -0.004678    0.003387
   -7   -4    0    8    8   -0.001766   -0.000120
   -7   -3    0    1    1   -0.000072   -0.000039
   -7   -3    0    2    1   -0.001331   -0.002361
   -7   -3    0    3    1    0.001794    0.001326
   -7   -3    0    4    1   -0.000124   -0.000894
   -7   -3    0    5    1   -0.000899    0.002119
   -7   -3    0    6    1   -0.000613   -0.002236
   -7   -3    0    7    1   -0.000480    0.003421
   -7   -3    0    8    1    0.000899   -0.000427
   -7   -3    0    1    2   -0.001057    0.001894
   -7   -3    0    2    2   -0.000827    0.002764
   -7   -3    0    3    2   -0.002229   -0.002051
   -7   -3    0    4    2   -0.000447    0.000553
   -7   -3    0    5    2   -0.000683   -0.003020
   -7   -3    0    6    2   -0.000721    0.001602
   -7   -3    0    7    2    0.001945   -0.002473
   -7   -3    0    8    2   -0.001843   -0.000676
   -7   -3    0    1    3    0.002300   -0.001537
   -7   -3    0    2    3    0.002231    0.002794
   -7   -3    0    3    3   -0.001391   -0.000080
   -7   -3    0    4    3    0.001680   -0.000195
   -7   -3    0    5    3    0.000166   -0.000391
   -7   -3    0    6    3    0.003172    0.001802
   -7   -3    0    7    3   -0.004116   -0.000074
   -7   -3    0    8    3    0.001910    0.000676
   -7   -3    0    1    4   -0.000855    0.000767
   -7   -3    0    2    4    0.004884   -0.001582
   -7   -3    0    3    4   -0.002204    0.003259
   -7   -3    0    4    4   -0.001398   -0.000491
   -7   -3    0    5    4   -0.003893   -0.001279
   -7   -3    0    6    4    0.002903   -0.002864
   -7   -3    0    7    4   -0.002541    0.005197
   -7   -3    0    8    4   -0.002340   -0.000669
   -7   -3    0    1    5    0.000889   -0.003589
   -7   -3    0    2    5   -0.002012   -0.000949
   -7   -3    0    3    5    0.002073   -0.000212
   -7   -3    0    4    5    0.000016    0.000201
   -7   -3    0    5    5    0.003501    0.001645
   -7   -3    0    6    5   -0.000597   -0.001403
   -7   -3    0    7    5   -0.000259    0.002807
   -7   -3    0    8    5    0.001546    0.000264
   -7   -3    0    1    6   -0.003141    0.002539
   -7   -3    0    2    6   -0.002229   -0.000532
   -7   -3    0    3    6    0.001238   -0.000485
   -7   -3    0    4    6   -0.000746    0.000054
   -7   -3    0    5    6    0.000333   -0.000115
   -7   -3    0    6    6   -0.003647   -0.000559
   -7   -3    0    7    6    0.003955   -0.000453
   -7   -3    0    8    6   -0.002015   -0.001342
   -7   -3    0    1    7    0.001171   -0.002447
   -7   -3    0    2    7   -0.002413    0.001345
   -7   -3    0    3    7    0.001917   -0.001847
   -7   -3    0    4    7   -0.002200   -0.001689
   -7   -3    0    5    7    0.002361   -0.000557
   -7   -3    0    6    7   -0.000732    0.002410
   -7   -3    0    7    7    0.007848   -0.002157
   -7   -3    0    8    7   -0.001477   -0.001567
   -7   -3    0    1    8   -0.000318    0.001087
   -7   -3    0    2    8    0.003733   -0.003161
   -7   -3    0    3    8   -0.000568    0.004063
   -7   -3    0    4    8   -0.001565   -0.000792
   -7   -3    0    5    8   -0.003957    0.000493
   -7   -3    0    6    8    0.001495   -0.003721
   -7   -3    0    7    8   -0.001447    0.006087
   -7   -3    0    8    8   -0.002154   -0.000721
   -7   -2    0    1    1   -0.000498    0.000247
   -7   -2    0    2    1   -0.002658   -0.000651
   -7   -2    0    3    1    0.002525   -0.000776
   -7   -2    0    4    1   -0.000302   -0.000210
   -7   -2    0    5    1    0.002498    0.001997
   -7   -2    0    6    1   -0.003591    0.000231
   -7   -2    0    7    1    0.000785    0.001003
   -7   -2    0    8    1    0.000281   -0.000313
   -7   -2    0    1    2    0.001613    0.000318
   -7   -2    0    2    2    0.000473    0.002256
   -7   -2    0    3    2   -0.002814    0.001315
   -7   -2    0    4    2   -0.000505    0.000084
   -7   -2    0    5    2   -0.002723   -0.000162
   -7   -2    0    6    2    0.002843    0.000978
   -7   -2    0    7    2    0.000162   -0.002641
   -7   -2    0    8    2   -0.000798    0.000733
   -7   -2    0    1    3   -0.000768   -0.001260
   -7   -2    0    2    3    0.003894   -0.000692
   -7   -2    0    3    3   -0.000126    0.001201
   -7   -2    0    4    3    0.001406   -0.000317
   -7   -2    0    5    3   -0.000288    0.000101
   -7   -2    0    6    3    0.001947   -0.002621
   -7   -2    0    7    3   -0.002506    0.003082
   -7   -2    0    8    3    0.002165   -0.000899
   -7   -2    0    1    4    0.001001    0.000836
   -7   -2    0    2    4   -0.000768   -0.003517
   -7   -2    0    3    4    0.001810    0.003759
   -7   -2    0    4    4   -0.003373   -0.001315
   -7   -2    0    5    4   -0.000887    0.002614
   -7   -2    0    6    4   -0.001378   -0.002299
   -7   -2    0    7    4    0.001364    0.004064
   -7   -2    0    8    4   -0.003103   -0.001096
   -7   -2    0    1    5   -0.001267    0.000013
   -7   -2    0    2    5   -0.000112   -0.000006
   -7   -2    0    3    5    0.000467   -0.002294
   -7   -2    0    4    5   -0.000058    0.002095
   -7   -2    0    5    5    0.001308   -0.002678
   -7   -2    0    6    5   -0.000136    0.000123
   -7   -2    0    7    5   -0.000507    0.001121
   -7   -2    0    8    5    0.000170    0.001479
   -7   -2    0    1    6    0.001647    0.001933
   -7   -2    0    2    6   -0.002522    0.002555
   -7   -2    0    3    6    0.000224   -0.001368
   -7   -2    0    4    6   -0.000134   -0.000452
   -7   -2    0    5    6    0.000518    0.000306
   -7   -2    0    6    6   -0.001867    0.003713
   -7   -2    0    7    6    0.001759   -0.003240
   -7   -2    0    8    6   -0.001282    0.000361
   -7   -2    0    1    7   -0.001583   -0.002936
   -7   -2    0    2    7    0.000631    0.002681
   -7   -2    0    3    7   -0.000041   -0.003640
   -7   -2    0    4    7   -0.000803    0.000473
   -7   -2    0    5    7    0.001163   -0.003818
   -7   -2    0    6    7    0.001438    0.001797
   -7   -2    0    7    7    0.003336   -0.002389
   -7   -2    0    8    7   -0.000071    0.000251
   -7   -2    0    1    8    0.001153    0.000483
   -7   -2    0    2    8   -0.001843   -0.003006
   -7   -2    0    3    8    0.002892    0.002670
   -7   -2    0    4    8   -0.002868   -0.001285
   -7   -2    0    5    8    0.001058    0.002294
   -7   -2    0    6    8   -0.002636   -0.001094
   -7   -2    0    7    8    0.001950    0.003556
   -7   -2    0    8    8   -0.003526   -0.001039
   -6   -6    0    1    1    0.001094   -0.000000
   -6   -6    0    2    1   -0.003574   -0.001948
   -6   -6    0    3    1    0.002364    0.001253
   -6   -6    0    4    1   -0.002372   -0.001381
   -6   -6    0    5    1   -0.001853    0.002817
   -6   -6    0    6    1   -0.001903   -0.002310
   -6   -6    0    7    1    0.002382    0.003023
   -6   -6    0    8    1    0.000963   -0.001669
   -6   -6    0    1    2   -0.003574    0.001948
   -6   -6    0    2    2    0.005769   -0.000000
   -6   -6    0    3    2   -0.001279    0.002311
   -6   -6    0    4    2    0.003332    0.006038
   -6   -6    0    5    2   -0.000321    0.000619
   -6   -6    0    6    2    0.000523   -0.000590
   -6   -6    0    7    2   -0.003686   -0.007972
   -6   -6    0    8    2   -0.002381    0.006642
   -6   -6    0    1    3    0.002364   -0.001253
   -6   -6    0    2    3   -0.001279   -0.002311
   -6   -6    0    3    3    0.002256    0.000000
   -6   -6    0    4    3    0.001243   -0.005872
   -6   -6    0    5    3   -0.000490    0.001129
   -6   -6    0    6    3    0.001270   -0.001496
   -6   -6    0    7    3   -0.003071    0.009176
   -6   -6    0    8    3    0.003023   -0.005394
   -6   -6    0    1    4   -0.002372    0.001381
   -6   -6    0    2    4    0.003332   -0.006038
   -6   -6    0    3    4    0.001243    0.005872
   -6   -6    0    4    4    0.000342    0.000000
   -6   -6    0    5    4    0.000059    0.004423
   -6   -6    0    6    4   -0.002322   -0.004755
   -6   -6    0    7    4    0.000116    0.003482
   -6   -6    0    8    4   -0.003287    0.000479
   -6   -6    0    1    5   -0.001853   -0.002817
   -6   -6    0    2    5   -0.000321   -0.000619
   -6   -6    0    3    5   -0.000490   -0.001129
   -6   -6    0    4    5    0.000059   -0.004423
   -6   -6    0    5    5    0.008743   -0.000000
   -6   -6    0    6    5   -0.003301    0.000307
   -6   -6    0    7    5    0.005509    0.004672
   -6   -6    0    8    5   -0.002154   -0.005176
   -6   -6    0    1    6   -0.001903    0.002310
   -6   -6    0    2    6    0.000523    0.000590
   -6   -6    0    3    6    0.001270    0.001496
   -6   -6    0    4    6   -0.002322    0.004755
   -6   -6    0    5    6   -0.003301   -0.000307
   -6   -6    0    6    6   -0.001663    0.000000
   -6   -6    0    7    6    0.002498   -0.008312
   -6   -6    0    8    6   -0.002717    0.005361
   -6   -6    0    1    7    0.002382   -0.003023
   -6   -6    0    2    7   -0.003686    0.007972
   -6   -6    0    3    7   -0.003071   -0.009176
   -6   -6    0    4    7    0.000116   -0.003482
   -6   -6    0    5    7    0.005509   -0.004672
   -6   -6    0    6    7    0.002498    0.008312
   -6   -6    0    7    7    0.004045    0.000000
   -6   -6    0    8    7    0.003368   -0.001488
   -6   -6    0    1    8    0.000963    0.001669
   -6   -6    0    2    8   -0.002381   -0.006642
   -6   -6    0    3    8    0.003023    0.005394
   -6   -6    0    4    8   -0.003287   -0.000479
   -6   -6    0    5    8   -0.002154    0.005176
   -6   -6    0    6    8   -0.002717   -0.005361
   -6   -6    0    7    8    0.003368    0.001488
   -6   -6    0    8    8   -0.000544    0.000000
   -6   -5    0    1    1   -0.000430    0.000254
   -6   -5    0    2    1   -0.001356    0.001719
   -6   -5    0    3    1    0.000631   -0.001350
   -6   -5    0    4    1   -0.000787    0.000567
   -6   -5    0    5    1    0.002387   -0.000403
   -6   -5    0    6    1   -0.000389    0.001504
   -6   -5    0    7    1    0.000372    0.000885
   -6   -5    0    8    1   -0.000628    0.000169
   -6   -5    0    1    2    0.002381    0.001345
   -6   -5    0    2    2    0.001615   -0.004271
   -6   -5    0    3    2    0.002607   -0.000223
   -6   -5    0    4    2    0.005364   -0.000008
   -6   -5    0    5    2   -0.001261    0.004826
   -6   -5    0    6    2   -0.001471    0.000168
   -6   -5    0    7    2   -0.006289    0.000343
   -6   -5    0    8    2    0.004578    0.003736
   -6   -5    0    1    3   -0.003597   -0.002113
   -6   -5    0    2    3   -0.001555   -0.001787
   -6   -5    0    3    3    0.000818    0.002706
   -6   -5    0    4    3   -0.003084   -0.003718
   -6   -5    0    5    3    0.001721    0.001130
   -6   -5    0    6    3   -0.001808   -0.003753
   -6   -5    0    7    3    0.006292    0.004177
   -6   -5    0    8    3   -0.001591   -0.006668
   -6   -5    0    1    4    0.002491    0.001162
   -6   -5    0    2    4   -0.006386   -0.002553
   -6   -5    0    3    4    0.006573   -0.000198
   -6   -5    0    4    4   -0.002854   -0.000048
   -6   -5    0    5    4    0.004785    0.003075
   -6   -5    0    6    4   -0.006337    0.001333
   -6   -5    0    7    4    0.002514   -0.001289
   -6   -5    0    8    4   -0.002993    0.000729
   -6   -5    0    1    5   -0.002141   -0.000604
   -6   -5    0    2    5   -0.002454    0.000761
   -6   -5    0    3    5    0.002823    0.000710
   -6   -5    0    4    5   -0.005715    0.002649
   -6   -5    0    5    5    0.000960   -0.004551
   -6   -5    0    6    5   -0.002961    0.000410
   -6   -5    0    7    5    0.005292   -0.005404
   -6   -5    0    8    5   -0.007190    0.000272
   -6   -5    0    1    6    0.004831    0.003010
   -6   -5    0    2    6   -0.000755    0.001222
   -6   -5    0    3    6    0.001215   -0.003840
   -6   -5    0    4    6    0.003720    0.002296
   -6   -5    0    5    6   -0.002052    0.001790
   -6   -5    0    6    6    0.001594    0.003780
   -6   -5    0    7    6   -0.007258   -0.002457
   -6   -5    0    8    6    0.004008    0.005839
   -6   -5    0    1    7   -0.003498   -0.004328
   -6   -5    0    2    7    0.005789    0.006202
   -6   -5    0    3    7   -0.007938   -0.002163
   -6   -5    0    4    7   -0.001479   -0.000708
   -6   -5    0    5    7   -0.002363   -0.008508
   -6   -5    0    6    7    0.007961    0.001216
   -6   -5    0    7    7    0.003836    0.001380
   -6   -5    0    8    7   -0.001002   -0.004472
   -6   -5    0    1    8    0.003717    0.000590
   -6   -5    0    2    8   -0.008259    0.001537
   -6   -5    0    3    8    0.005252   -0.003189
   -6   -5    0    4    8   -0.003033    0.000648
   -6   -5    0    5    8    0.006189    0.001081
   -6   -5    0    6    8   -0.005114    0.004066
   -6   -5    0    7    8    0.001268   -0.000482
   -6   -5    0    8    8   -0.002686    0.000812
   -6   -4    0    1    1    0.000437    0.000270
   -6   -4    0    2    1    0.000223    0.001263
   -6   -4    0    3    1   -0.001118   -0.000963
   -6   -4    0    4    1    0.001032    0.000596
   -6   -4    0    5    1    0.000038   -0.001937
   -6   -4    0    6    1    0.001380    0.001498
   -6   -4    0    7    1   -0.002579    0.000165
   -6   -4    0    8    1    0.000945    0.000924
   -6   -4    0    1    2    0.000246   -0.003289
   -6   -4    0    2    2   -0.001696   -0.002352
   -6   -4    0    3    2    0.000819   -0.000540
   -6   -4    0    4    2    0.000707   -0.003920
   -6   -4    0    5    2    0.004484    0.003115
   -6   -4    0    6    2    0.000303   -0.001183
   -6   -4    0    7    2    0.001209    0.004407
   -6   -4    0    8    2    0.003861   -0.003720
   -6   -4    0    1    3   -0.002041    0.002580
   -6   -4    0    2    3   -0.003849    0.001817
   -6   -4    0    3    3    0.003429   -0.001380
   -6   -4    0    4    3   -0.002569    0.002182
   -6   -4    0    5    3    0.001517   -0.000726
   -6   -4    0    6    3   -0.004861    0.001609
   -6   -4    0    7    3    0.003005   -0.003166
   -6   -4    0    8    3   -0.004365    0.000201
   -6   -4    0    1    4    0.001399   -0.001693
   -6   -4    0    2    4   -0.002923    0.005669
   -6   -4    0    3    4    0.000667   -0.004036
   -6   -4    0    4    4   -0.002393    0.000985
   -6   -4    0    5    4    0.005618   -0.004180
   -6   -4    0    6    4    0.000079    0.005571
   -6   -4    0    7    4   -0.001057   -0.002011
   -6   -4    0    8    4   -0.002772    0.000525
   -6   -4    0    1    5   -0.000159    0.005029
   -6   -4    0    2    5    0.001195   -0.000340
   -6   -4    0    3    5    0.000378   -0.000864
   -6   -4    0    4    5    0.000432    0.005159
   -6   -4    0    5    5   -0.004453    0.000066
   -6   -4    0    6    5   -0.000330    0.000817
   -6   -4    0    7    5   -0.002474   -0.004851
   -6   -4    0    8    5   -0.000780    0.006103
   -6   -4    0    1    6    0.003040   -0.004238
   -6   -4    0    2    6    0.001366   -0.000445
   -6   -4    0    3    6   -0.002550   -0.000711
   -6   -4    0    4    6    0.002179   -0.003889
   -6   -4    0    5    6    0.001935    0.001379
   -6   -4    0    6    6    0.004339    0.000170
   -6   -4    0    7    6   -0.004090    0.005578
   -6   -4    0    8    6    0.005691   -0.002508
   -6   -4    0    1    7   -0.004093    0.001940
   -6   -4    0    2    7    0.006671   -0.002594
   -6   -4    0    3    7   -0.002813    0.003656
   -6   -4    0    4    7    0.000029    0.000335
   -6   -4    0    5    7   -0.007635   -0.001661
   -6   -4    0    6    7    0.002645   -0.004958
   -6   -4    0    7    7    0.003734    0.001866
   -6   -4    0    8    7   -0.002037   -0.001308
   -6   -4    0    1    8    0.001241   -0.002358
   -6   -4    0    2    8   -0.000981    0.007255
   -6   -4    0    3    8   -0.001658   -0.004046
   -6   -4    0    4    8   -0.000884    0.001221
   -6   -4    0    5    8    0.003493   -0.006349
   -6   -4    0    6    8    0.002344    0.006168
   -6   -4    0    7    8   -0.002675   -0.002831
   -6   -4    0    8    8   -0.001736    0.000646
   -6   -3    0    1    1    0.000623    0.000062
   -6   -3    0    2    1    0.001172   -0.002139
   -6   -3    0    3    1   -0.000752    0.001168
   -6   -3    0    4    1    0.000874   -0.000626
   -6   -3    0    5    1   -0.002384    0.000616
   -6   -3    0    6    1    0.001637   -0.001880
   -6   -3    0    7    1   -0.001800    0.002678
   -6   -3    0    8    1    0.001614   -0.000143
   -6   -3    0    1    2   -0.004154   -0.000678
   -6   -3    0    2    2   -0.003068    0.001247
   -6   -3    0    3    2    0.000979   -0.002029
   -6   -3    0    4    2   -0.002930   -0.000106
   -6   -3    0    5    2    0.003250   -0.002595
   -6   -3    0    6    2   -0.001892   -0.000194
   -6   -3    0    7    2    0.004682   -0.000364
   -6   -3    0    8    2   -0.002123   -0.002680
   -6   -3    0    1    3    0.003489    0.002293
   -6   -3    0    2    3   -0.001126    0.005386
   -6   -3    0    3    3    0.000097   -0.003486
   -6   -3    0    4    3    0.001063    0.001281
   -6   -3    0    5    3    0.000777   -0.000703
   -6   -3    0    6    3    0.000365    0.005744
   -6   -3    0    7    3   -0.003938   -0.003295
   -6   -3    0    8    3    0.000399    0.002761
   -6   -3    0    1    4   -0.001258   -0.001579
   -6   -3    0    2    4    0.003851    0.004429
   -6   -3    0    3    4   -0.003768   -0.000466
   -6   -3    0    4    4   -0.001401    0.001280
   -6   -3    0    5    4   -0.001527   -0.006513
   -6   -3    0    6    4    0.004822    0.001694
   -6   -3    0    7    4   -0.003890    0.000441
   -6   -3    0    8    4   -0.001516    0.000527
   -6   -3    0    1    5    0.005031   -0.000274
   -6   -3    0    2    5   -0.000802   -0.000481
   -6   -3    0    3    5    0.000632   -0.001110
   -6   -3    0    4    5    0.001073    0.000057
   -6   -3    0    5    5    0.001303    0.003638
   -6   -3    0    6    5    0.000795    0.001699
   -6   -3    0    7    5   -0.003968    0.002597
   -6   -3    0    8    5    0.002900    0.002775
   -6   -3    0    1    6   -0.004527   -0.003450
   -6   -3    0    2    6   -0.000128   -0.002596
   -6   -3    0    3    6    0.000158    0.002366
   -6   -3    0    4    6   -0.001993   -0.001588
   -6   -3    0    5    6   -0.000040   -0.001249
   -6   -3    0    6    6    0.000104   -0.004652
   -6   -3    0    7    6    0.004064    0.003731
   -6   -3    0    8    6   -0.001129   -0.004784
   -6   -3    0    1    7    0.002385    0.001476
   -6   -3    0    2    7   -0.000973   -0.004942
   -6   -3    0    3    7    0.001512    0.001817
   -6   -3    0    4    7    0.000188   -0.001821
   -6   -3    0    5    7   -0.001988    0.004610
   -6   -3    0    6    7   -0.002270   -0.002112
   -6   -3    0    7    7    0.006998    0.001388
   -6   -3    0    8    7   -0.000115   -0.001038
   -6   -3    0    1    8   -0.002280   -0.000716
   -6   -3    0    2    8    0.005990    0.002083
   -6   -3    0    3    8   -0.004230    0.001564
   -6   -3    0    4    8    0.000509    0.000793
   -6   -3    0    5    8   -0.003887   -0.005230
   -6   -3    0    6    8    0.004945   -0.000452
   -6   -3    0    7    8   -0.004010    0.001734
   -6   -3    0    8    8   -0.001388    0.000200
   -6   -2    0    1    1   -0.000763   -0.000114
   -6   -2    0    2    1   -0.001942   -0.001684
   -6   -2    0    3    1    0.001463    0.000621
   -6   -2    0    4    1   -0.000292   -0.000472
   -6   -2    0    5    1    0.000553    0.002093
   -6   -2    0    6    1   -0.001515   -0.001354
   -6   -2    0    7    1    0.000357    0.002439
   -6   -2    0    8    1    0.000743   -0.000674
   -6   -2    0    1    2   -0.000257    0.003793
   -6   -2    0    2    2    0.000634    0.002268
   -6   -2    0    3    2   -0.001946   -0.002201
   -6   -2    0    4    2    0.000559    0.001176
   -6   -2    0    5    2   -0.001788   -0.002026
   -6   -2    0    6    2   -0.000233    0.001910
   -6   -2    0    7    2    0.000165   -0.003080
   -6   -2    0    8    2   -0.001190    0.001292
   -6   -2    0    1    3    0.001207   -0.003479
   -6   -2    0    2    3    0.002841    0.003436
   -6   -2    0    3    3   -0.002002    0.000228
   -6   -2    0    4    3    0.000887   -0.001272
   -6   -2    0    5    3    0.000876   -0.000917
   -6   -2    0    6    3    0.003983    0.001339
   -6   -2    0    7    3   -0.003987    0.001746
   -6   -2    0    8    3    0.002161   -0.000559
   -6   -2    0    1    4   -0.000361    0.001290
   -6   -2    0    2    4    0.005278   -0.002444
   -6   -2    0    3    4   -0.001892    0.003821
   -6   -2    0    4    4   -0.000191   -0.000396
   -6   -2    0    5    4   -0.004745   -0.000876
   -6   -2    0    6    4    0.002789   -0.003388
   -6   -2    0    7    4   -0.002107    0.004313
   -6   -2    0    8    4   -0.001948   -0.000250
   -6   -2    0    1    5   -0.001118   -0.006318
   -6   -2    0    2    5   -0.001118    0.000919
   -6   -2    0    3    5    0.001291    0.000430
   -6   -2    0    4    5   -0.001848    0.000558
   -6   -2    0    5    5    0.004339   -0.000311
   -6   -2    0    6    5   -0.000439   -0.001656
   -6   -2    0    7    5    0.001023    0.000807
   -6   -2    0    8    5   -0.000306   -0.001115
   -6   -2    0    1    6   -0.002596    0.005407
   -6   -2    0    2    6   -0.002148   -0.000099
   -6   -2    0    3    6    0.002053   -0.001517
   -6   -2    0    4    6   -0.000069    0.001311
   -6   -2    0    5    6   -0.002073    0.000012
   -6   -2    0    6    6   -0.003706    0.000535
   -6   -2    0    7    6    0.002225   -0.001682
   -6   -2    0    8    6   -0.002036    0.000761
   -6   -2    0    1    7    0.001002   -0.002878
   -6   -2    0    2    7   -0.002879    0.000451
   -6   -2    0    3    7    0.001494   -0.002385
   -6   -2    0    4    7   -0.002184   -0.000850
   -6   -2    0    5    7    0.003512    0.000332
   -6   -2    0    6    7   -0.000255    0.001318
   -6   -2    0    7    7    0.006322   -0.001246
   -6   -2    0    8    7   -0.000993   -0.002383
   -6   -2    0    1    8   -0.000784    0.002023
   -6   -2    0    2    8    0.003718   -0.003143
   -6   -2    0    3    8   -0.000705    0.004090
   -6   -2    0    4    8    0.000799   -0.000649
   -6   -2    0    5    8   -0.004126    0.000958
   -6   -2    0    6    8    0.001131   -0.003212
   -6   -2    0    7    8   -0.001087    0.004568
   -6   -2    0    8    8   -0.001111   -0.000319
   -6   -1    0    1    1    0.000195    0.000293
   -6   -1    0    2    1   -0.004052    0.000113
   -6   -1    0    3    1    0.001327   -0.000910
   -6   -1    0    4    1   -0.000485   -0.000094
   -6   -1    0    5    1    0.002556    0.000911
   -6   -1    0    6    1   -0.002043    0.000975
   -6   -1    0    7    1    0.000164    0.000162
   -6   -1    0    8    1    0.000401    0.000043
   -6   -1    0    1    2    0.001200   -0.000637
   -6   -1    0    2    2    0.001958    0.002444
   -6   -1    0    3    2   -0.001694    0.000605
   -6   -1    0    4    2    0.000521   -0.000559
   -6   -1    0    5    2   -0.000491    0.000894
   -6   -1    0    6    2    0.001290    0.001647
   -6   -1    0    7    2   -0.000934   -0.001075
   -6   -1    0    8    2   -0.000383    0.000003
   -6   -1    0    1    3   -0.002590   -0.000898
   -6   -1    0    2    3    0.005795   -0.000775
   -6   -1    0    3    3   -0.000640    0.001285
   -6   -1    0    4    3    0.001893    0.000222
   -6   -1    0    5    3   -0.000734   -0.000864
   -6   -1    0    6    3    0.001555   -0.002570
   -6   -1    0    7    3   -0.001664    0.004140
   -6   -1    0    8    3    0.001127   -0.000821
   -6   -1    0    1    4    0.000666    0.000584
   -6   -1    0    2    4   -0.000535   -0.003256
   -6   -1    0    3    4    0.002297    0.003229
   -6   -1    0    4    4   -0.002391   -0.001385
   -6   -1    0    5    4   -0.000287    0.002551
   -6   -1    0    6    4   -0.002245   -0.001791
   -6   -1    0    7    4    0.001614    0.003653
   -6   -1    0    8    4   -0.002660   -0.001157
   -6   -1    0    1    5   -0.002099    0.002265
   -6   -1    0    2    5    0.003565   -0.000373
   -6   -1    0    3    5   -0.000930   -0.001333
   -6   -1    0    4    5    0.001894    0.003206
   -6   -1    0    5    5   -0.000358   -0.003130
   -6   -1    0    6    5   -0.001425   -0.000521
   -6   -1    0    7    5   -0.000156    0.000015
   -6   -1    0    8    5   -0.000265    0.002257
   -6   -1    0    1    6    0.004683    0.001058
   -6   -1    0    2    6   -0.004028    0.001672
   -6   -1    0    3    6   -0.000143   -0.001214
   -6   -1    0    4    6   -0.000832   -0.001805
   -6   -1    0    5    6    0.000868    0.001269
   -6   -1    0    6    6    0.001167    0.003926
   -6   -1    0    7    6   -0.000323   -0.002089
   -6   -1    0    8    6    0.000641    0.000309
   -6   -1    0    1    7   -0.002718   -0.000962
   -6   -1    0    2    7    0.000765    0.002105
   -6   -1    0    3    7   -0.000411   -0.003120
   -6   -1    0    4    7   -0.001160    0.000285
   -6   -1    0    5    7    0.000138   -0.005046
   -6   -1    0    6    7    0.000358    0.000769
   -6   -1    0    7    7    0.004337   -0.002803
   -6   -1    0    8    7   -0.001093    0.000700
   -6   -1    0    1    8    0.001826   -0.000230
   -6   -1    0    2    8   -0.002975   -0.003056
   -6   -1    0    3    8    0.002770    0.003073
   -6   -1    0    4    8   -0.003140   -0.001517
   -6   -1    0    5    8    0.000797    0.002193
   -6   -1    0    6    8   -0.001622   -0.001598
   -6   -1    0    7    8    0.002523    0.002206
   -6   -1    0    8    8   -0.002427   -0.001212
   -6    0    0    1    1    0.002708   -0.000000
   -6    0    0    2    1   -0.001486    0.002241
   -6    0    0    3    1   -0.002876   -0.001899
   -6    0    0    4    1   -0.000728    0.000547
   -6    0    0    5    1   -0.000762   -0.002989
   -6    0    0    6    1    0.004812    0.002677
   -6    0    0    7    1   -0.001275    0.000042
   -6    0    0    8    1    0.003532    0.000606
   -6    0    0    1    2   -0.001486   -0.002241
   -6    0    0    2    2    0.003568   -0.000000
   -6    0    0    3    2   -0.000437    0.002365
   -6    0    0    4    2   -0.000145    0.000192
   -6    0    0    5    2   -0.000525    0.001785
   -6    0    0    6    2    0.002163   -0.002204
   -6    0    0    7    2    0.000873    0.000211
   -6    0    0    8    2   -0.001425    0.000437
   -6    0    0    1    3   -0.002875    0.001899
   -6    0    0    2    3   -0.000437   -0.002365
   -6    0    0    3    3    0.004111   -0.000000
   -6    0    0    4    3    0.001806   -0.000656
   -6    0    0    5    3    0.001008    0.001133
   -6    0    0    6    3   -0.004149   -0.000305
   -6    0    0    7    3   -0.001141    0.002086
   -6    0    0    8    3   -0.000568   -0.000782
   -6    0    0    1    4   -0.000728   -0.000547
   -6    0    0    2    4   -0.000145   -0.000192
   -6    0    0    3    4    0.001806    0.000656
   -6    0    0    4    4   -0.001410    0.000000
   -6    0    0    5    4    0.003058   -0.000136
   -6    0    0    6    4   -0.002165    0.000856
   -6    0    0    7    4    0.002435   -0.001444
   -6    0    0    8    4   -0.003914   -0.000171
   -6    0    0    1    5   -0.000762    0.002989
   -6    0    0    2    5   -0.000525   -0.001785
   -6    0    0    3    5    0.001008   -0.001133
   -6    0    0    4    5    0.003058    0.000136
   -6    0    0    5    5   -0.000765    0.000000
   -6    0    0    6    5   -0.001946    0.001999
   -6    0    0    7    5   -0.001439    0.000912
   -6    0    0    8    5    0.000019    0.001946
   -6    0    0    1    6    0.004812   -0.002677
   -6    0    0    2    6    0.002163    0.002204
   -6    0    0    3    6   -0.004149    0.000305
   -6    0    0    4    6   -0.002165   -0.000856
   -6    0    0    5    6   -0.001946   -0.001999
   -6    0    0    6    6    0.006644   -0.000000
   -6    0    0    7    6   -0.000486    0.000510
   -6    0    0    8    6    0.002528   -0.000286
   -6    0    0    1    7   -0.001275   -0.000042
   -6    0    0    2    7    0.000873   -0.000211
   -6    0    0    3    7   -0.001141   -0.002086
   -6    0    0    4    7    0.002435    0.001444
   -6    0    0    5    7   -0.001439   -0.000912
   -6    0    0    6    7   -0.000486   -0.000510
   -6    0    0    7    7    0.004823    0.000000
   -6    0    0    8    7    0.001366   -0.001269
   -6    0    0    1    8    0.003532   -0.000606
   -6    0    0    2    8   -0.001425   -0.000437
   -6    0    0    3    8   -0.000568    0.000782
   -6    0    0    4    8   -0.003914    0.000171
   -6    0    0    5    8    0.000019   -0.001946
   -6    0    0    6    8    0.002528    0.000286
   -6    0    0    7    8    0.001366    0.001269
   -6    0    0    8    8   -0.000488    0.000000
   -5   -7    0    1    1   -0.000370   -0.000067
   -5   -7    0    2    1    0.001805    0.001874
   -5   -7    0    3    1   -0.001474   -0.001812
   -5   -7    0    4    1    0.001539    0.000832
   -5   -7    0    5    1    0.000083   -0.002946
   -5   -7    0    6    1    0.002362    0.002433
   -5   -7    0    7    1   -0.003483    0.000010
   -5   -7    0    8    1    0.001294    0.001620
   -5   -7    0    1    2    0.000561   -0.002236
   -5   -7    0    2    2   -0.003402    0.003436
   -5   -7    0    3    2   -0.002984   -0.001346
   -5   -7    0    4    2   -0.003927   -0.003811
   -5   -7    0    5    2    0.001826   -0.000621
   -5   -7    0    6    2    0.000777    0.001094
   -5   -7    0    7    2    0.006027    0.000767
   -5   -7    0    8    2   -0.001669   -0.005846
   -5   -7    0    1    3   -0.000479    0.001655
   -5   -7    0    2    3    0.001945    0.000825
   -5   -7    0    3    3    0.002113    0.000472
   -5   -7    0    4    3    0.001967    0.003357
   -5   -7    0    5    3    0.000050   -0.000564
   -5   -7    0    6    3   -0.000236    0.001395
   -5   -7    0    7    3   -0.004083   -0.002947
   -5   -7    0    8    3   -0.000255    0.003755
   -5   -7    0    1    4    0.000373   -0.000955
   -5   -7    0    2    4    0.002579    0.003456
   -5   -7    0    3    4   -0.003228   -0.000350
   -5   -7    0    4    4   -0.002927   -0.000609
   -5   -7    0    5    4   -0.000537   -0.004848
   -5   -7    0    6    4    0.003766    0.002685
   -5   -7    0    7    4   -0.001937    0.002110
   -5   -7    0    8    4   -0.001923   -0.000827
   -5   -7    0    1    5    0.000743    0.002660
   -5   -7    0    2    5    0.003426   -0.004051
   -5   -7    0    3    5    0.001409    0.000322
   -5   -7    0    4    5    0.005578    0.002924
   -5   -7    0    5    5   -0.004767    0.001223
   -5   -7    0    6    5    0.002325   -0.001756
   -5   -7    0    7    5   -0.007032    0.002751
   -5   -7    0    8    5    0.004587    0.005931
   -5   -7    0    1    6    0.000870   -0.002454
   -5   -7    0    2    6    0.000399    0.000883
   -5   -7    0    3    6   -0.004251   -0.000358
   -5   -7    0    4    6   -0.000737   -0.005281
   -5   -7    0    5    6    0.000434   -0.000180
   -5   -7    0    6    6    0.001775   -0.000891
   -5   -7    0    7    6    0.003768    0.003875
   -5   -7    0    8    6    0.001336   -0.006261
   -5   -7    0    1    7   -0.001588    0.000752
   -5   -7    0    2    7   -0.001780   -0.004686
   -5   -7    0    3    7    0.005220    0.002029
   -5   -7    0    4    7   -0.001219    0.001779
   -5   -7    0    5    7   -0.002054    0.002785
   -5   -7    0    6    7   -0.004810   -0.003076
   -5   -7    0    7    7    0.006340   -0.002417
   -5   -7    0    8    7   -0.002597    0.001654
   -5   -7    0    1    8    0.000315   -0.001316
   -5   -7    0    2    8    0.005832    0.001868
   -5   -7    0    3    8   -0.004412    0.001997
   -5   -7    0    4    8   -0.002301   -0.000972
   -5   -7    0    5    8   -0.002640   -0.005099
   -5   -7    0    6    8    0.006090    0.000302
   -5   -7    0    7    8   -0.002934    0.003828
   -5   -7    0    8    8   -0.002224   -0.000968
   -5   -6    0    1    1   -0.000252   -0.000292
   -5   -6    0    2    1    0.000404   -0.000584
   -5   -6    0    3    1    0.000091    0.000790
   -5   -6    0    4    1    0.001709   -0.000922
   -5   -6    0    5    1   -0.001866    0.001268
   -5   -6    0    6    1    0.000056   -0.001524
   -5   -6    0    7    1   -0.002549    0.004819
   -5   -6    0    8    1    0.000536   -0.000703
   -5   -6    0    1    2   -0.003181   -0.000832
   -5   -6    0    2    2    0.004596    0.002783
   -5   -6    0    3    2   -0.002976    0.002793
   -5   -6    0    4    2   -0.004360    0.002935
   -5   -6    0    5    2   -0.001384   -0.003605
   -5   -6    0    6    2    0.002755   -0.001208
   -5   -6    0    7    2    0.004108   -0.006691
   -5   -6    0    8    2   -0.005071    0.000604
   -5   -6    0    1    3    0.003339    0.001795
   -5   -6    0    2    3   -0.000211   -0.001815
   -5   -6    0    3    3    0.000677   -0.001718
   -5   -6    0    4    3    0.004637   -0.001382
   -5   -6    0    5    3   -0.002564    0.000912
   -5   -6    0    6    3    0.001867    0.001333
   -5   -6    0    7    3   -0.006929    0.003526
   -5   -6    0    8    3    0.006437    0.001270
   -5   -6    0    1    4   -0.001450   -0.000169
   -5   -6    0    2    4    0.006399   -0.002655
   -5   -6    0    3    4   -0.002499    0.005603
   -5   -6    0    4    4   -0.002424   -0.000418
   -5   -6    0    5    4   -0.004743   -0.001921
   -5   -6    0    6    4    0.005665   -0.004392
   -5   -6    0    7    4   -0.001320    0.003199
   -5   -6    0    8    4   -0.002474   -0.000556
   -5   -6    0    1    5    0.003609   -0.000347
   -5   -6    0    2    5   -0.002109   -0.005950
   -5   -6    0    3    5    0.001414   -0.000090
   -5   -6    0    4    5    0.002804   -0.004959
   -5   -6    0    5    5    0.000321    0.004923
   -5   -6    0    6    5    0.000719   -0.003209
   -5   -6    0    7    5   -0.001409    0.009909
   -5   -6    0    8    5    0.006595   -0.002680
   -5   -6    0    1    6   -0.003989   -0.001851
   -5   -6    0    2    6    0.001039    0.000866
   -5   -6    0    3    6   -0.001186    0.003665
   -5   -6    0    4    6   -0.004609    0.000392
   -5   -6    0    5    6    0.001150   -0.000528
   -5   -6    0    6    6   -0.001191   -0.002729
   -5   -6    0    7    6    0.007353   -0.002927
   -5   -6    0    8    6   -0.006645   -0.002793
   -5   -6    0    1    7    0.002883    0.000891
   -5   -6    0    2    7   -0.009418   -0.000595
   -5   -6    0    3    7    0.005152   -0.005393
   -5   -6    0    4    7    0.001329   -0.000465
   -5   -6    0    5    7    0.004402    0.001405
   -5   -6    0    6    7   -0.005476    0.005541
   -5   -6    0    7    7    0.003743   -0.002230
   -5   -6    0    8    7    0.002126    0.000199
   -5   -6    0    1    8   -0.001807    0.000245
   -5   -6    0    2    8    0.005425   -0.005727
   -5   -6    0    3    8   -0.000171    0.007374
   -5   -6    0    4    8   -0.001267   -0.001025
   -5   -6    0    5    8   -0.004440    0.000984
   -5   -6    0    6    8    0.001216   -0.006440
   -5   -6    0    7    8    0.000031    0.004821
   -5   -6    0    8    8   -0.003285   -0.001080
   -5   -5    0    1    1   -0.001383    0.000017
   -5   -5    0    2    1    0.000753   -0.000505
   -5   -5    0    3    1   -0.000274    0.000628
   -5   -5    0    4    1    0.001295   -0.000756
   -5   -5    0    5    1    0.003127    0.002026
   -5   -5    0    6    1   -0.002694   -0.000477
   -5   -5    0    7    1    0.001261    0.001182
   -5   -5    0    8    1    0.000275   -0.001245
   -5   -5    0    1    2    0.000694    0.002916
   -5   -5    0    2    2    0.000064   -0.001328
   -5   -5    0    3    2    0.004259    0.000470
   -5   -5    0    4    2   -0.000186    0.006023
   -5   -5    0    5    2   -0.006788    0.000905
   -5   -5    0    6    2    0.000735   -0.001633
   -5   -5    0    7    2   -0.004672   -0.003890
   -5   -5    0    8    2   -0.000867    0.006994
   -5   -5    0    1    3    0.003365   -0.001906
   -5   -5    0    2    3    0.000349   -0.002581
   -5   -5    0    3    3   -0.005883    0.001523
   -5   -5    0    4    3   -0.000378   -0.007824
   -5   -5    0    5    3    0.000536    0.002038
   -5   -5    0    6    3    0.005112   -0.002774
   -5   -5    0    7    3    0.001594    0.005797
   -5   -5    0    8    3    0.007071   -0.005818
   -5   -5    0    1    4    0.001291    0.001801
   -5   -5    0    2    4   -0.004801   -0.007672
   -5   -5    0    3    4    0.007384    0.005417
   -5   -5    0    4    4   -0.004933    0.000006
   -5   -5    0    5    4   -0.004664    0.004878
   -5   -5    0    6    4   -0.003438   -0.005909
   -5   -5    0    7    4    0.001375    0.004374
   -5   -5    0    8    4   -0.003187    0.000071
   -5   -5    0    1    5    0.001694   -0.004722
   -5   -5    0    2    5   -0.012527   -0.001921
   -5   -5    0    3    5    0.006084    0.001633
   -5   -5    0    4    5   -0.012026   -0.004451
   -5   -5    0    5    5    0.000679    0.000432
   -5   -5    0    6    5   -0.000297   -0.003194
   -5   -5    0    7    5    0.007525    0.006108
   -5   -5    0    8    5   -0.003445   -0.005713
   -5   -5    0    1    6   -0.004085    0.003434
   -5   -5    0    2    6    0.000730    0.001070
   -5   -5    0    3    6    0.006899   -0.000557
   -5   -5    0    4    6    0.002473    0.007645
   -5   -5    0    5    6    0.000354    0.001200
   -5   -5    0    6    6   -0.007683    0.001034
   -5   -5    0    7    6   -0.001438   -0.006550
   -5   -5    0    8    6   -0.006434    0.005385
   -5   -5    0    1    7    0.000545   -0.009459
   -5   -5    0    2    7   -0.000287    0.014674
   -5   -5    0    3    7   -0.005262   -0.007366
   -5   -5    0    4    7    0.001478    0.001286
   -5   -5    0    5    7    0.006650   -0.004413
   -5   -5    0    6    7    0.001804    0.005931
   -5   -5    0    7    7    0.002630   -0.000521
   -5   -5    0    8    7    0.001758   -0.004582
   -5   -5    0    1    8   -0.002180    0.002616
   -5   -5    0    2    8   -0.003768   -0.007561
   -5   -5    0    3    8    0.009121    0.002852
   -5   -5    0    4    8    0.001947   -0.000186
   -5   -5    0    5    8    0.003300    0.005837
   -5   -5    0    6    8   -0.010711   -0.002575
   -5   -5    0    7    8    0.003425    0.001796
   -5   -5    0    8    8   -0.005903    0.000070
   -5   -4    0    1    1    0.000262    0.000317
   -5   -4    0    2    1   -0.000247    0.001981
   -5   -4    0    3    1    0.000690   -0.001302
   -5   -4    0    4    1   -0.000427    0.000492
   -5   -4    0    5    1    0.002235   -0.001130
   -5   -4    0    6    1   -0.001166    0.001974
   -5   -4    0    7    1    0.000346   -0.000882
   -5   -4    0    8    1   -0.000782    0.000538
   -5   -4    0    1    2    0.002643    0.001316
   -5   -4    0    2    2    0.000371   -0.004077
   -5   -4    0    3    2    0.000000   -0.000938
   -5   -4    0    4    2    0.004722   -0.001844
   -5   -4    0    5    2   -0.001901    0.006106
   -5   -4    0    6    2    0.001026   -0.000787
   -5   -4    0    7    2   -0.005681    0.005527
   -5   -4    0    8    2    0.007504    0.001643
   -5   -4    0    1    3   -0.002707   -0.002547
   -5   -4    0    2    3   -0.005264   -0.001717
   -5   -4    0    3    3    0.003183    0.001885
   -5   -4    0    4    3   -0.004272   -0.002231
   -5   -4    0    5    3    0.003675    0.000226
   -5   -4    0    6    3   -0.003941   -0.002300
   -5   -4    0    7    3    0.006179    0.003029
   -5   -4    0    8    3   -0.005433   -0.005114
   -5   -4    0    1    4    0.000024    0.001255
   -5   -4    0    2    4   -0.006846   -0.000593
   -5   -4    0    3    4    0.005163   -0.002159
   -5   -4    0    4    4   -0.001106    0.000080
   -5   -4    0    5    4    0.005395    0.003120
   -5   -4    0    6    4   -0.005625    0.002262
   -5   -4    0    7    4    0.002919   -0.000762
   -5   -4    0    8    4   -0.001231    0.000494
   -5   -4    0    1    5   -0.014120    0.001736
   -5   -4    0    2    5    0.000719    0.000305
   -5   -4    0    3    5    0.002728    0.000836
   -5   -4    0    4    5   -0.003598    0.005019
   -5   -4    0    5    5   -0.000026   -0.003913
   -5   -4    0    6    5   -0.002627   -0.000927
   -5   -4    0    7    5    0.005805   -0.007656
   -5   -4    0    8    5   -0.005961    0.002354
   -5   -4    0    1    6    0.008476    0.003829
   -5   -4    0    2    6    0.001965    0.002037
   -5   -4    0    3    6   -0.002411   -0.004556
   -5   -4    0    4    6    0.004930   -0.000033
   -5   -4    0    5    6   -0.000667    0.002817
   -5   -4    0    6    6    0.001307    0.003689
   -5   -4    0    7    6   -0.005814   -0.004136
   -5   -4    0    8    6    0.007294    0.004169
   -5   -4    0    1    7   -0.004990   -0.003434
   -5   -4    0    2    7    0.009323    0.005581
   -5   -4    0    3    7   -0.006642    0.002737
   -5   -4    0    4    7   -0.001000    0.002397
   -5   -4    0    5    7   -0.003635   -0.008972
   -5   -4    0    6    7    0.008608   -0.001253
   -5   -4    0    7    7    0.002347    0.000833
   -5   -4    0    8    7   -0.002202   -0.003348
   -5   -4    0    1    8    0.006396   -0.000316
   -5   -4    0    2    8   -0.011593    0.003650
   -5   -4    0    3    8    0.004810   -0.004191
   -5   -4    0    4    8   -0.003542    0.000315
   -5   -4    0    5    8    0.006866    0.000277
   -5   -4    0    6    8   -0.005302    0.005664
   -5   -4    0    7    8    0.003231   -0.006975
   -5   -4    0    8    8   -0.000314    0.000331
   -5   -3    0    1    1   -0.000396    0.000621
   -5   -3    0    2    1    0.002894    0.000049
   -5   -3    0    3    1   -0.001097    0.000174
   -5   -3    0    4    1    0.000864   -0.000290
   -5   -3    0    5    1   -0.000564   -0.001268
   -5   -3    0    6    1    0.001384    0.000355
   -5   -3    0    7    1   -0.002661    0.000306
   -5   -3    0    8    1    0.001010    0.000676
   -5   -3    0    1    2   -0.000468   -0.005950
   -5   -3    0    2    2   -0.003938   -0.001256
   -5   -3    0    3    2    0.001207   -0.000001
   -5   -3    0    4    2   -0.001540   -0.004127
   -5   -3    0    5    2    0.005477    0.002003
   -5   -3    0    6    2   -0.000526   -0.001107
   -5   -3    0    7    2    0.003921    0.005959
   -5   -3    0    8    2    0.001522   -0.005217
   -5   -3    0    1    3    0.000220    0.005130
   -5   -3    0    2    3   -0.006944    0.002597
   -5   -3    0    3    3    0.004763   -0.003938
   -5   -3    0    4    3   -0.002275    0.004046
   -5   -3    0    5    3    0.000564   -0.001413
   -5   -3    0    6    3   -0.005526    0.003699
   -5   -3    0    7    3    0.002693   -0.007935
   -5   -3    0    8    3   -0.004058    0.002650
   -5   -3    0    1    4    0.001125   -0.002853
   -5   -3    0    2    4   -0.003105    0.008540
   -5   -3    0    3    4   -0.000356   -0.005309
   -5   -3    0    4    4   -0.000907    0.001773
   -5   -3    0    5    4    0.005879   -0.005647
   -5   -3    0    6    4    0.000823    0.006896
   -5   -3    0    7    4   -0.001244   -0.002564
   -5   -3    0    8    4   -0.002460    0.000541
   -5   -3    0    1    5    0.001227    0.009740
   -5   -3    0    2    5    0.001183   -0.000158
   -5   -3    0    3    5    0.000161   -0.005035
   -5   -3    0    4    5    0.007310    0.005777
   -5   -3    0    5    5   -0.002162    0.001567
   -5   -3    0    6    5   -0.004026    0.002509
   -5   -3    0    7    5   -0.005599   -0.004418
   -5   -3    0    8    5   -0.000836    0.007204
   -5   -3    0    1    6    0.003454   -0.008024
   -5   -3    0    2    6    0.003186   -0.000855
   -5   -3    0    3    6   -0.004967    0.002202
   -5   -3    0    4    6    0.000111   -0.006949
   -5   -3    0    5    6    0.003009    0.001432
   -5   -3    0    6    6    0.005007   -0.001126
   -5   -3    0    7    6   -0.001383    0.007910
   -5   -3    0    8    6    0.004716   -0.005231
   -5   -3    0    1    7   -0.004542    0.006887
   -5   -3    0    2    7    0.009023   -0.003157
   -5   -3    0    3    7   -0.001940    0.003241
   -5   -3    0    4    7    0.002845    0.002375
   -5   -3    0    5    7   -0.009424   -0.000376
   -5   -3    0    6    7    0.002359   -0.005631
   -5   -3    0    7    7    0.001259    0.002078
   -5   -3    0    8    7   -0.000718    0.001385
   -5   -3    0    1    8   -0.001155   -0.004342
   -5   -3    0    2    8    0.000803    0.010412
   -5   -3    0    3    8   -0.004607   -0.003574
   -5   -3    0    4    8    0.000820    0.001859
   -5   -3    0    5    8    0.003079   -0.008049
   -5   -3    0    6    8    0.004610    0.006124
   -5   -3    0    7    8   -0.002507   -0.005534
   -5   -3    0    8    8    0.000248    0.000389
   -5   -2    0    1    1    0.001233    0.000337
   -5   -2    0    2    1    0.000596   -0.004047
   -5   -2    0    3    1   -0.000633    0.002133
   -5   -2    0    4    1   -0.000163   -0.001861
   -5   -2    0    5    1   -0.000810    0.001810
   -5   -2    0    6    1    0.000402   -0.002518
   -5   -2    0    7    1   -0.000866    0.003444
   -5   -2    0    8    1    0.001771   -0.000978
   -5   -2    0    1    2   -0.006958   -0.000357
   -5   -2    0    2    2   -0.001958    0.002540
   -5   -2    0    3    2    0.002127   -0.001865
   -5   -2    0    4    2   -0.001877    0.002849
   -5   -2    0    5    2    0.001778   -0.003839
   -5   -2    0    6    2   -0.002894   -0.000886
   -5   -2    0    7    2    0.004729   -0.003570
   -5   -2    0    8    2   -0.003953   -0.001110
   -5   -2    0    1    3    0.005238    0.001895
   -5   -2    0    2    3   -0.002128    0.008035
   -5   -2    0    3    3   -0.002341   -0.006142
   -5   -2    0    4    3    0.001362    0.000909
   -5   -2    0    5    3    0.001437   -0.001187
   -5   -2    0    6    3    0.002258    0.008524
   -5   -2    0    7    3   -0.005812   -0.001923
   -5   -2    0    8    3    0.002452    0.003455
   -5   -2    0    1    4   -0.003632   -0.001743
   -5   -2    0    2    4    0.006490    0.005396
   -5   -2    0    3    4   -0.004334    0.000097
   -5   -2    0    4    4    0.001575    0.002553
   -5   -2    0    5    4   -0.002836   -0.006984
   -5   -2    0    6    4    0.005314    0.000656
   -5   -2    0    7    4   -0.004614   -0.000774
   -5   -2    0    8    4   -0.001871    0.000945
   -5   -2    0    1    5    0.007084   -0.002500
   -5   -2    0    2    5   -0.002967    0.001253
   -5   -2    0    3    5    0.000093   -0.002515
   -5   -2    0    4    5   -0.001104   -0.002472
   -5   -2    0    5    5    0.002650    0.003681
   -5   -2    0    6    5    0.002810    0.004269
   -5   -2    0    7    5   -0.002535    0.000358
   -5   -2    0    8    5    0.004242    0.001624
   -5   -2    0    1    6   -0.006916   -0.003118
   -5   -2    0    2    6    0.000452   -0.002724
   -5   -2    0    3    6    0.000714    0.003836
   -5   -2    0    4    6   -0.003672    0.000833
   -5   -2    0    5    6    0.000715   -0.001253
   -5   -2    0    6    6   -0.001258   -0.007000
   -5   -2    0    7    6    0.006655    0.000512
   -5   -2    0    8    6   -0.003418   -0.004484
   -5   -2    0    1    7    0.005516    0.002029
   -5   -2    0    2    7   -0.001684   -0.008174
   -5   -2    0    3    7    0.002423    0.003408
   -5   -2    0    4    7    0.001831   -0.002491
   -5   -2    0    5    7   -0.001453    0.007033
   -5   -2    0    6    7   -0.002273   -0.002595
   -5   -2    0    7    7    0.005643    0.003519
   -5   -2    0    8    7    0.001716   -0.001830
   -5   -2    0    1    8   -0.000885   -0.000234
   -5   -2    0    2    8    0.007695    0.002286
   -5   -2    0    3    8   -0.005967    0.002366
   -5   -2    0    4    8    0.003298    0.001861
   -5   -2    0    5    8   -0.005323   -0.005862
   -5   -2    0    6    8    0.006223   -0.001937
   -5   -2    0    7    8   -0.004762    0.000600
   -5   -2    0    8    8    0.000770    0.000569
   -5   -1    0    1    1   -0.000602   -0.000098
   -5   -1    0    2    1   -0.003068   -0.000923
   -5   -1    0    3    1    0.002156   -0.000230
   -5   -1    0    4    1   -0.001053   -0.000228
   -5   -1    0    5    1    0.001788    0.001864
   -5   -1    0    6    1   -0.003269   -0.000350
   -5   -1    0    7    1    0.001494    0.000635
   -5   -1    0    8    1   -0.000263   -0.000736
   -5   -1    0    1    2    0.001732    0.006612
   -5   -1    0    2    2    0.000624    0.000982
   -5   -1    0    3    2   -0.001569   -0.002850
   -5   -1    0    4    2    0.002047    0.001241
   -5   -1    0    5    2   -0.003461   -0.001081
   -5   -1    0    6    2   -0.000245    0.003121
   -5   -1    0    7    2   -0.002245   -0.002237
   -5   -1    0    8    2    0.000853    0.003210
   -5   -1    0    1    3    0.001012   -0.007831
   -5   -1    0    2    3    0.001214    0.004670
   -5   -1    0    3    3   -0.003588    0.001350
   -5   -1    0    4    3   -0.000251   -0.001612
   -5   -1    0    5    3    0.001143   -0.001982
   -5   -1    0    6    3    0.006242    0.000264
   -5   -1    0    7    3   -0.002854    0.001843
   -5   -1    0    8    3    0.001477   -0.002297
   -5   -1    0    1    4   -0.000357    0.003162
   -5   -1    0    2    4    0.007021   -0.004329
   -5   -1    0    3    4   -0.002679    0.004466
   -5   -1    0    4    4    0.002339   -0.000849
   -5   -1    0    5    4   -0.005788    0.000102
   -5   -1    0    6    4    0.003328   -0.003657
   -5   -1    0    7    4   -0.002346    0.005682
   -5   -1    0    8    4    0.000443    0.000438
   -5   -1    0    1    5   -0.011686   -0.010544
   -5   -1    0    2    5   -0.001368    0.003937
   -5   -1    0    3    5    0.004389    0.000485
   -5   -1    0    4    5   -0.002039    0.002318
   -5   -1    0    5    5    0.006009   -0.002876
   -5   -1    0    6    5   -0.001867   -0.001720
   -5   -1    0    7    5    0.001897   -0.002406
   -5   -1    0    8    5   -0.005071   -0.001967
   -5   -1    0    1    6   -0.000596    0.011753
   -5   -1    0    2    6    0.002038    0.001028
   -5   -1    0    3    6    0.000688   -0.004047
   -5   -1    0    4    6    0.002000    0.002452
   -5   -1    0    5    6   -0.002154    0.000571
   -5   -1    0    6    6   -0.005399    0.002515
   -5   -1    0    7    6   -0.000328   -0.002378
   -5   -1    0    8    6   -0.000598    0.003766
   -5   -1    0    1    7    0.000334   -0.006217
   -5   -1    0    2    7   -0.003036    0.003309
   -5   -1    0    3    7    0.002593   -0.001684
   -5   -1    0    4    7   -0.003189    0.001465
   -5   -1    0    5    7    0.004913    0.000877
   -5   -1    0    6    7   -0.001123   -0.001628
   -5   -1    0    7    7    0.007340   -0.000683
   -5   -1    0    8    7   -0.001326   -0.003677
   -5   -1    0    1    8    0.002095    0.003624
   -5   -1    0    2    8    0.004714   -0.003523
   -5   -1    0    3    8   -0.001882    0.003848
   -5   -1    0    4    8    0.001477   -0.000878
   -5   -1    0    5    8   -0.005193    0.001201
   -5   -1    0    6    8    0.001912   -0.002812
   -5   -1    0    7    8   -0.001146    0.003632
   -5   -1    0    8    8    0.001613    0.000429
   -5    0    0    1    1   -0.003253   -0.000181
   -5    0    0    2    1   -0.000296    0.001909
   -5    0    0    3    1    0.001638   -0.001746
   -5    0    0    4    1    0.002083    0.000871
   -5    0    0    5    1    0.003225    0.000083
   -5    0    0    6    1   -0.004116    0.002271
   -5    0    0    7    1   -0.000003   -0.002409
   -5    0    0    8    1   -0.001827    0.000376
   -5    0    0    1    2    0.004841   -0.002061
   -5    0    0    2    2   -0.002696    0.001457
   -5    0    0    3    2   -0.001437    0.000446
   -5    0    0    4    2   -0.001686   -0.002481
   -5    0    0    5    2   -0.000522    0.001671
   -5    0    0    6    2    0.004096    0.002119
   -5    0    0    7    2   -0.002032    0.001514
   -5    0    0    8    2    0.001811   -0.000882
   -5    0    0    1    3    0.002413    0.000364
   -5    0    0    2    3    0.005334   -0.001443
   -5    0    0    3    3   -0.003268    0.002740
   -5    0    0    4    3   -0.001794    0.000510
   -5    0    0    5    3   -0.004702   -0.002074
   -5    0    0    6    3    0.006031   -0.004772
   -5    0    0    7    3   -0.001152    0.006686
   -5    0    0    8    3    0.002972   -0.000936
   -5    0    0    1    4    0.000950   -0.000021
   -5    0    0    2    4   -0.002878   -0.004054
   -5    0    0    3    4    0.003430    0.003327
   -5    0    0    4    4   -0.003975   -0.001872
   -5    0    0    5    4    0.000483    0.002655
   -5    0    0    6    4   -0.000692   -0.001733
   -5    0    0    7    4    0.001920    0.004640
   -5    0    0    8    4   -0.001804   -0.001283
   -5    0    0    1    5   -0.001624    0.003423
   -5    0    0    2    5    0.001532   -0.000094
   -5    0    0    3    5    0.001033   -0.001436
   -5    0    0    4    5   -0.001421    0.005254
   -5    0    0    5    5   -0.003571   -0.003099
   -5    0    0    6    5    0.000972   -0.002342
   -5    0    0    7    5   -0.002838    0.002797
   -5    0    0    8    5    0.000206    0.003157
   -5    0    0    1    6   -0.000769   -0.002194
   -5    0    0    2    6   -0.000937    0.002995
   -5    0    0    3    6    0.001139   -0.002003
   -5    0    0    4    6    0.004639   -0.002231
   -5    0    0    5    6    0.004384    0.003002
   -5    0    0    6    6   -0.005230    0.005497
   -5    0    0    7    6    0.000798   -0.005761
   -5    0    0    8    6   -0.001472   -0.000752
   -5    0    0    1    7   -0.005725   -0.003061
   -5    0    0    2    7   -0.000576    0.001136
   -5    0    0    3    7    0.001876   -0.001491
   -5    0    0    4    7   -0.002217    0.001395
   -5    0    0    5    7    0.001056   -0.003608
   -5    0    0    6    7   -0.001082    0.000402
   -5    0    0    7    7    0.003740   -0.003378
   -5    0    0    8    7   -0.003487   -0.000964
   -5    0    0    1    8   -0.003376   -0.001334
   -5    0    0    2    8    0.001139   -0.002499
   -5    0    0    3    8    0.002949    0.003154
   -5    0    0    4    8    0.002560   -0.001926
   -5    0    0    5    8    0.002987    0.002264
   -5    0    0    6    8   -0.005477   -0.000294
   -5    0    0    7    8    0.003034   -0.000862
   -5    0    0    8    8   -0.004359   -0.001444
   -5    1    0    1    1   -0.000899    0.000197
   -5    1    0    2    1    0.000506    0.001642
   -5    1    0    3    1   -0.000829   -0.000988
   -5    1    0    4    1    0.001453    0.000013
   -5    1    0    5    1    0.000624   -0.001639
   -5    1    0    6    1    0.000476    0.002063
   -5    1    0    7    1   -0.001651    0.000610
   -5    1    0    8    1    0.000870    0.000275
   -5    1    0    1    2    0.000046   -0.004187
   -5    1    0    2    2    0.003849    0.001172
   -5    1    0    3    2   -0.002047    0.002863
   -5    1    0    4    2   -0.002310    0.000401
   -5    1    0    5    2   -0.001032    0.000178
   -5    1    0    6    2    0.004887   -0.003777
   -5    1    0    7    2    0.000330    0.000799
   -5    1    0    8    2    0.000471   -0.001298
   -5    1    0    1    3    0.000064    0.003517
   -5    1    0    2    3   -0.000399   -0.003866
   -5    1    0    3    3    0.002050    0.000079
   -5    1    0    4    3    0.001932   -0.000798
   -5    1    0    5    3   -0.001250    0.001187
   -5    1    0    6    3   -0.002421   -0.000080
   -5    1    0    7    3   -0.000141    0.001660
   -5    1    0    8    3    0.001771    0.000678
   -5    1    0    1    4    0.001496   -0.001033
   -5    1    0    2    4   -0.001112   -0.000399
   -5    1    0    3    4    0.001335    0.000871
   -5    1    0    4    4   -0.003851    0.000091
   -5    1    0    5    4    0.000425   -0.000577
   -5    1    0    6    4    0.001183   -0.000737
   -5    1    0    7    4    0.000893    0.001300
   -5    1    0    8    4   -0.002371   -0.000568
   -5    1    0    1    5    0.002708    0.002102
   -5    1    0    2    5   -0.000914   -0.002106
   -5    1    0    3    5   -0.000312   -0.001036
   -5    1    0    4    5    0.003187   -0.000042
   -5    1    0    5    5   -0.002114    0.001973
   -5    1    0    6    5    0.000199    0.001140
   -5    1    0    7    5   -0.002236    0.002216
   -5    1    0    8    5    0.002887    0.002247
   -5    1    0    1    6   -0.000299   -0.004459
   -5    1    0    2    6    0.002379    0.002508
   -5    1    0    3    6   -0.002744    0.001580
   -5    1    0    4    6   -0.001034   -0.001020
   -5    1    0    5    6    0.001332   -0.001109
   -5    1    0    6    6    0.003986   -0.001566
   -5    1    0    7    6   -0.000041    0.000905
   -5    1    0    8    6   -0.000780   -0.002735
   -5    1    0    1    7   -0.001423   -0.000328
   -5    1    0    2    7    0.000575    0.001187
   -5    1    0    3    7   -0.000931   -0.003077
   -5    1    0    4    7    0.002017    0.000692
   -5    1    0    5    7   -0.002838   -0.002846
   -5    1    0    6    7   -0.000604    0.001702
   -5    1    0    7    7    0.001994   -0.001367
   -5    1    0    8    7    0.000762    0.000463
   -5    1    0    1    8   -0.000762   -0.000652
   -5    1    0    2    8   -0.000419   -0.001174
   -5    1    0    3    8    0.002274    0.001581
   -5    1    0    4    8   -0.002424   -0.000005
   -5    1    0    5    8    0.001939   -0.000913
   -5    1    0    6    8   -0.001434   -0.000871
   -5    1    0    7    8    0.002614    0.000408
   -5    1    0    8    8   -0.003719   -0.000758
   -5    2    0    1    1   -0.000498   -0.000247
   -5    2    0    2    1    0.001613   -0.000318
   -5    2    0    3    1   -0.000768    0.001260
   -5    2    0    4    1    0.001001   -0.000836
   -5    2    0    5    1   -0.001267   -0.000013
   -5    2    0    6    1    0.001647   -0.001933
   -5    2    0    7    1   -0.001583    0.002936
   -5    2    0    8    1    0.001153   -0.000483
   -5    2    0    1    2   -0.002658    0.000651
   -5    2    0    2    2    0.000473   -0.002256
   -5    2    0    3    2    0.003894    0.000692
   -5    2    0    4    2   -0.000768    0.003517
   -5    2    0    5    2   -0.000112    0.000006
   -5    2    0    6    2   -0.002522   -0.002555
   -5    2    0    7    2    0.000631   -0.002681
   -5    2    0    8    2   -0.001843    0.003006
   -5    2    0    1    3    0.002525    0.000776
   -5    2    0    2    3   -0.002814   -0.001315
   -5    2    0    3    3   -0.000126   -0.001201
   -5    2    0    4    3    0.001810   -0.003759
   -5    2    0    5    3    0.000467    0.002294
   -5    2    0    6    3    0.000224    0.001368
   -5    2    0    7    3   -0.000041    0.003640
   -5    2    0    8    3    0.002892   -0.002670
   -5    2    0    1    4   -0.000302    0.000210
   -5    2    0    2    4   -0.000505   -0.000084
   -5    2    0    3    4    0.001406    0.000317
   -5    2    0    4    4   -0.003373    0.001315
   -5    2    0    5    4   -0.000058   -0.002095
   -5    2    0    6    4   -0.000134    0.000452
   -5    2    0    7    4   -0.000803   -0.000473
   -5    2    0    8    4   -0.002868    0.001285
   -5    2    0    1    5    0.002498   -0.001997
   -5    2    0    2    5   -0.002723    0.000162
   -5    2    0    3    5   -0.000288   -0.000101
   -5    2    0    4    5   -0.000887   -0.002614
   -5    2    0    5    5    0.001308    0.002678
   -5    2    0    6    5    0.000518   -0.000306
   -5    2    0    7    5    0.001163    0.003818
   -5    2    0    8    5    0.001058   -0.002294
   -5    2    0    1    6   -0.003591   -0.000231
   -5    2    0    2    6    0.002843   -0.000978
   -5    2    0    3    6    0.001947    0.002621
   -5    2    0    4    6   -0.001378    0.002299
   -5    2    0    5    6   -0.000136   -0.000123
   -5    2    0    6    6   -0.001867   -0.003713
   -5    2    0    7    6    0.001438   -0.001797
   -5    2    0    8    6   -0.002636    0.001094
   -5    2    0    1    7    0.000785   -0.001003
   -5    2    0    2    7    0.000162    0.002641
   -5    2    0    3    7   -0.002506   -0.003082
   -5    2    0    4    7    0.001364   -0.004064
   -5    2    0    5    7   -0.000507   -0.001121
   -5    2    0    6    7    0.001759    0.003240
   -5    2    0    7    7    0.003336    0.002389
   -5    2    0    8    7    0.001950   -0.003556
   -5    2    0    1    8    0.000281    0.000313
   -5    2    0    2    8   -0.000798   -0.000733
   -5    2    0    3    8    0.002165    0.000899
   -5    2    0    4    8   -0.003103    0.001096
   -5    2    0    5    8    0.000170   -0.001479
   -5    2    0    6    8   -0.001282   -0.000361
   -5    2    0    7    8   -0.000071   -0.000251
   -5    2    0    8    8   -0.003526    0.001039
   -4   -8    0    1    1   -0.000196    0.000042
   -4   -8    0    2    1   -0.001554   -0.001040
   -4   -8    0    3    1    0.001875    0.000496
   -4   -8    0    4    1   -0.000456   -0.000316
   -4   -8    0    5    1    0.000699    0.001925
   -4   -8    0    6    1   -0.001916   -0.001291
   -4   -8    0    7    1    0.000765    0.001876
   -4   -8    0    8    1   -0.000206   -0.000552
   -4   -8    0    1    2    0.000125    0.002564
   -4   -8    0    2    2   -0.001311   -0.003294
   -4   -8    0    3    2    0.002525   -0.002838
   -4   -8    0    4    2    0.003974    0.000978
   -4   -8    0    5    2   -0.000631    0.002213
   -4   -8    0    6    2   -0.003450    0.001016
   -4   -8    0    7    2   -0.002280   -0.001056
   -4   -8    0    8    2    0.003294    0.003017
   -4   -8    0    1    3    0.000638   -0.001630
   -4   -8    0    2    3   -0.002780    0.002659
   -4   -8    0    3    3   -0.000761   -0.000005
   -4   -8    0    4    3   -0.002354   -0.002698
   -4   -8    0    5    3    0.003540    0.000150
   -4   -8    0    6    3   -0.000192    0.000557
   -4   -8    0    7    3    0.002611    0.001171
   -4   -8    0    8    3   -0.000741   -0.004173
   -4   -8    0    1    4    0.001438    0.000629
   -4   -8    0    2    4   -0.001864    0.000631
   -4   -8    0    3    4    0.002005   -0.000923
   -4   -8    0    4    4   -0.002675    0.000843
   -4   -8    0    5    4    0.000947   -0.000691
   -4   -8    0    6    4   -0.001416    0.001718
   -4   -8    0    7    4   -0.001742    0.000278
   -4   -8    0    8    4   -0.002078    0.001308
   -4   -8    0    1    5   -0.000962   -0.001858
   -4   -8    0    2    5    0.000410    0.003916
   -4   -8    0    3    5   -0.000492    0.000533
   -4   -8    0    4    5   -0.004469    0.002203
   -4   -8    0    5    5    0.002854   -0.003256
   -4   -8    0    6    5    0.000491    0.000573
   -4   -8    0    7    5    0.002125   -0.000717
   -4   -8    0    8    5   -0.004002   -0.000005
   -4   -8    0    1    6    0.000114    0.002432
   -4   -8    0    2    6   -0.000112   -0.001731
   -4   -8    0    3    6    0.002596   -0.002154
   -4   -8    0    4    6    0.003679    0.002644
   -4   -8    0    5    6   -0.001542    0.001373
   -4   -8    0    6    6   -0.001908    0.001159
   -4   -8    0    7    6   -0.002578   -0.001737
   -4   -8    0    8    6    0.001968    0.003993
   -4   -8    0    1    7   -0.001049   -0.003911
   -4   -8    0    2    7    0.003466    0.001967
   -4   -8    0    3    7   -0.005186    0.000646
   -4   -8    0    4    7   -0.002637   -0.005190
   -4   -8    0    5    7   -0.001081   -0.002780
   -4   -8    0    6    7    0.005167   -0.000708
   -4   -8    0    7    7    0.005904    0.003140
   -4   -8    0    8    7   -0.000969   -0.005706
   -4   -8    0    1    8    0.001243    0.000364
   -4   -8    0    2    8   -0.002218    0.002237
   -4   -8    0    3    8    0.001810   -0.002217
   -4   -8    0    4    8   -0.002390    0.001037
   -4   -8    0    5    8    0.002346   -0.001366
   -4   -8    0    6    8   -0.001698    0.003382
   -4   -8    0    7    8   -0.002365    0.001085
   -4   -8    0    8    8   -0.002932    0.001293
   -4   -7    0    1    1   -0.000181    0.000365
   -4   -7    0    2    1   -0.001997    0.000968
   -4   -7    0    3    1    0.001499   -0.002033
   -4   -7    0    4    1    0.000009    0.001289
   -4   -7    0    5    1    0.002456   -0.001199
   -4   -7    0    6    1   -0.001380    0.002755
   -4   -7    0    7    1   -0.000997    0.000525
   -4   -7    0    8    1   -0.000290    0.001183
   -4   -7    0    1    2    0.003098   -0.000362
   -4   -7    0    2    2   -0.004001    0.000410
   -4   -7    0    3    2   -0.002193   -0.003803
   -4   -7    0    4    2    0.002627   -0.004247
   -4   -7    0    5    2    0.001328    0.002432
   -4   -7    0    6    2    0.000337    0.001934
   -4   -7    0    7    2    0.000724    0.002762
   -4   -7    0    8    2    0.004868   -0.003327
   -4   -7    0    1    3   -0.002527   -0.000183
   -4   -7    0    2    3    0.001846    0.002930
   -4   -7    0    3    3    0.000640    0.001618
   -4   -7    0    4    3   -0.002492    0.001460
   -4   -7    0    5    3    0.002020   -0.002062
   -4   -7    0    6    3   -0.001069    0.000478
   -4   -7    0    7    3    0.000581   -0.003054
   -4   -7    0    8    3   -0.003962   -0.000007
   -4   -7    0    1    4    0.001294   -0.000606
   -4   -7    0    2    4   -0.000036    0.003616
   -4   -7    0    3    4   -0.001157   -0.001866
   -4   -7    0    4    4   -0.001571   -0.000227
   -4   -7    0    5    4    0.001600   -0.003023
   -4   -7    0    6    4    0.001485    0.003341
   -4   -7    0    7    4   -0.002237    0.001205
   -4   -7    0    8    4   -0.001594   -0.000189
   -4   -7    0    1    5   -0.002395    0.001711
   -4   -7    0    2    5    0.006013    0.000169
   -4   -7    0    3    5    0.000590    0.001411
   -4   -7    0    4    5    0.000450    0.006205
   -4   -7    0    5    5   -0.002878   -0.003971
   -4   -7    0    6    5    0.001495    0.000156
   -4   -7    0    7    5   -0.003228   -0.003852
   -4   -7    0    8    5   -0.002120    0.006194
   -4   -7    0    1    6    0.003056   -0.000115
   -4   -7    0    2    6   -0.001735   -0.000147
   -4   -7    0    3    6   -0.001178   -0.003820
   -4   -7    0    4    6    0.004044   -0.002787
   -4   -7    0    5    6    0.000410    0.001623
   -4   -7    0    6    6    0.001398    0.002247
   -4   -7    0    7    6   -0.002501    0.003729
   -4   -7    0    8    6    0.006002   -0.001391
   -4   -7    0    1    7   -0.003377   -0.001456
   -4   -7    0    2    7    0.002889   -0.003482
   -4   -7    0    3    7    0.000150    0.005048
   -4   -7    0    4    7   -0.004057   -0.000399
   -4   -7    0    5    7   -0.003460   -0.001103
   -4   -7    0    6    7    0.000562   -0.005235
   -4   -7    0    7    7    0.009888   -0.000393
   -4   -7    0    8    7   -0.005026   -0.003280
   -4   -7    0    1    8    0.001487   -0.000881
   -4   -7    0    2    8    0.001965    0.004971
   -4   -7    0    3    8   -0.003102   -0.001781
   -4   -7    0    4    8   -0.000483    0.000017
   -4   -7    0    5    8    0.000750   -0.004685
   -4   -7    0    6    8    0.003956    0.004330
   -4   -7    0    7    8   -0.003956    0.002661
   -4   -7    0    8    8   -0.001111   -0.000040
   -4   -6    0    1    1    0.000653    0.000005
   -4   -6    0    2    1   -0.000149    0.001171
   -4   -6    0    3    1   -0.000735   -0.001224
   -4   -6    0    4    1    0.001168    0.000366
   -4   -6    0    5    1   -0.001350   -0.001538
   -4   -6    0    6    1    0.002269    0.001463
   -4   -6    0    7    1   -0.003149    0.000688
   -4   -6    0    8    1    0.001515    0.000982
   -4   -6    0    1    2   -0.001792   -0.003453
   -4   -6    0    2    2   -0.000364    0.004949
   -4   -6    0    3    2   -0.003515   -0.000350
   -4   -6    0    4    2   -0.004004   -0.002533
   -4   -6    0    5    2    0.004334   -0.001860
   -4   -6    0    6    2    0.000805    0.001126
   -4   -6    0    7    2    0.005957   -0.000299
   -4   -6    0    8    2   -0.003021   -0.005351
   -4   -6    0    1    3   -0.000356    0.002695
   -4   -6    0    2    3    0.003672   -0.000447
   -4   -6    0    3    3    0.001445    0.000095
   -4   -6    0    4    3    0.003509    0.003120
   -4   -6    0    5    3   -0.001924   -0.001166
   -4   -6    0    6    3   -0.000064    0.001284
   -4   -6    0    7    3   -0.005091   -0.002284
   -4   -6    0    8    3    0.000675    0.004225
   -4   -6    0    1    4    0.000105   -0.001529
   -4   -6    0    2    4    0.005079    0.002814
   -4   -6    0    3    4   -0.004498    0.001320
   -4   -6    0    4    4   -0.001547   -0.000602
   -4   -6    0    5    4   -0.001634   -0.004895
   -4   -6    0    6    4    0.005092    0.000565
   -4   -6    0    7    4   -0.002464    0.003370
   -4   -6    0    8    4   -0.001760   -0.001218
   -4   -6    0    1    5    0.001837    0.003617
   -4   -6    0    2    5    0.003552   -0.006564
   -4   -6    0    3    5    0.000654    0.000505
   -4   -6    0    4    5    0.006753    0.001509
   -4   -6    0    5    5   -0.005517    0.002855
   -4   -6    0    6    5    0.002181   -0.002704
   -4   -6    0    7    5   -0.007197    0.003985
   -4   -6    0    8    5    0.005794    0.005015
   -4   -6    0    1    6    0.000317   -0.003761
   -4   -6    0    2    6   -0.000615    0.000891
   -4   -6    0    3    6   -0.003998    0.001087
   -4   -6    0    4    6   -0.002235   -0.005300
   -4   -6    0    5    6    0.001690    0.000090
   -4   -6    0    6    6    0.002972   -0.001447
   -4   -6    0    7    6    0.004288    0.004637
   -4   -6    0    8    6   -0.000175   -0.006827
   -4   -6    0    1    7   -0.000561    0.002901
   -4   -6    0    2    7   -0.006229   -0.005571
   -4   -6    0    3    7    0.007606    0.000181
   -4   -6    0    4    7   -0.001324    0.002484
   -4   -6    0    5    7   -0.001205    0.002297
   -4   -6    0    6    7   -0.007166   -0.001911
   -4   -6    0    7    7    0.005168   -0.003733
   -4   -6    0    8    7   -0.001544    0.003562
   -4   -6    0    1    8   -0.000679   -0.001491
   -4   -6    0    2    8    0.007718   -0.000230
   -4   -6    0    3    8   -0.004589    0.004616
   -4   -6    0    4    8   -0.001268   -0.001674
   -4   -6    0    5    8   -0.004292   -0.003879
   -4   -6    0    6    8    0.007146   -0.002429
   -4   -6    0    7    8   -0.002508    0.004529
   -4   -6    0    8    8   -0.001325   -0.001604
   -4   -5    0    1    1    0.000912   -0.000558
   -4   -5    0    2    1   -0.001202   -0.000329
   -4   -5    0    3    1   -0.000453    0.001071
   -4   -5    0    4    1   -0.001980   -0.001074
   -4   -5    0    5    1   -0.002379    0.000857
   -4   -5    0    6    1    0.003003   -0.001713
   -4   -5    0    7    1   -0.001898    0.003329
   -4   -5    0    8    1    0.002778   -0.000890
   -4   -5    0    1    2   -0.004660   -0.000166
   -4   -5    0    2    2    0.004938    0.003068
   -4   -5    0    3    2   -0.000647    0.002592
   -4   -5    0    4    2   -0.002791    0.004850
   -4   -5    0    5    2   -0.002235   -0.003953
   -4   -5    0    6    2    0.000638   -0.000577
   -4   -5    0    7    2    0.002268   -0.005975
   -4   -5    0    8    2   -0.007347    0.002723
   -4   -5    0    1    3    0.003113    0.001945
   -4   -5    0    2    3    0.000326   -0.002857
   -4   -5    0    3    3    0.000282   -0.002194
   -4   -5    0    4    3    0.006410   -0.002493
   -4   -5    0    5    3   -0.000327    0.002990
   -4   -5    0    6    3   -0.000127    0.000284
   -4   -5    0    7    3   -0.005097    0.004394
   -4   -5    0    8    3    0.005757   -0.000307
   -4   -5    0    1    4   -0.002365   -0.000031
   -4   -5    0    2    4    0.006229   -0.004859
   -4   -5    0    3    4   -0.001495    0.007130
   -4   -5    0    4    4   -0.000336   -0.000431
   -4   -5    0    5    4   -0.005640    0.000211
   -4   -5    0    6    4    0.002341   -0.005945
   -4   -5    0    7    4    0.000238    0.003487
   -4   -5    0    8    4   -0.002856   -0.000622
   -4   -5    0    1    5    0.007162   -0.001441
   -4   -5    0    2    5   -0.004991   -0.005120
   -4   -5    0    3    5   -0.003599   -0.000204
   -4   -5    0    4    5    0.002816   -0.006580
   -4   -5    0    5    5    0.001107    0.007939
   -4   -5    0    6    5   -0.001501   -0.004085
   -4   -5    0    7    5    0.001941    0.008254
   -4   -5    0    8    5    0.007528   -0.004615
   -4   -5    0    1    6   -0.005396   -0.001382
   -4   -5    0    2    6    0.000358   -0.001328
   -4   -5    0    3    6    0.003395    0.005920
   -4   -5    0    4    6   -0.007214    0.000209
   -4   -5    0    5    6   -0.000408   -0.002486
   -4   -5    0    6    6   -0.001040   -0.002730
   -4   -5    0    7    6    0.006432   -0.003567
   -4   -5    0    8    6   -0.007769   -0.001490
   -4   -5    0    1    7    0.006506    0.001172
   -4   -5    0    2    7   -0.011520    0.008411
   -4   -5    0    3    7    0.002048   -0.013459
   -4   -5    0    4    7    0.002165    0.001405
   -4   -5    0    5    7    0.006427    0.001086
   -4   -5    0    6    7   -0.002753    0.011933
   -4   -5    0    7    7    0.001404   -0.003473
   -4   -5    0    8    7    0.004982    0.004346
   -4   -5    0    1    8   -0.002064    0.001018
   -4   -5    0    2    8    0.002427   -0.010731
   -4   -5    0    3    8    0.003348    0.009896
   -4   -5    0    4    8   -0.002631   -0.002193
   -4   -5    0    5    8   -0.006700    0.003195
   -4   -5    0    6    8    0.001483   -0.009820
   -4   -5    0    7    8    0.001881    0.005628
   -4   -5    0    8    8   -0.000875   -0.001646
   -4   -4    0    1    1   -0.005386    0.000141
   -4   -4    0    2    1   -0.002241    0.000274
   -4   -4    0    3    1    0.004768   -0.000212
   -4   -4    0    4    1   -0.000630   -0.000673
   -4   -4    0    5    1    0.001064    0.000497
   -4   -4    0    6    1   -0.002361    0.000823
   -4   -4    0    7    1   -0.000978    0.005178
   -4   -4    0    8    1   -0.003092   -0.000520
   -4   -4    0    1    2    0.000857    0.005874
   -4   -4    0    2    2    0.010734   -0.003911
   -4   -4    0    3    2   -0.004507    0.001174
   -4   -4    0    4    2    0.008140    0.004907
   -4   -4    0    5    2   -0.004280    0.001652
   -4   -4    0    6    2    0.001249   -0.002275
   -4   -4    0    7    2   -0.005569   -0.006997
   -4   -4    0    8    2    0.005032    0.006480
   -4   -4    0    1    3   -0.005403   -0.005778
   -4   -4    0    2    3    0.002510   -0.002996
   -4   -4    0    3    3    0.002798    0.001299
   -4   -4    0    4    3    0.005849   -0.006207
   -4   -4    0    5    3    0.008469    0.005815
   -4   -4    0    6    3   -0.009411   -0.002532
   -4   -4    0    7    3    0.005341    0.007940
   -4   -4    0    8    3   -0.004721   -0.008853
   -4   -4    0    1    4    0.001040    0.003340
   -4   -4    0    2    4    0.000396   -0.009414
   -4   -4    0    3    4    0.001000    0.005185
   -4   -4    0    4    4    0.001977   -0.000782
   -4   -4    0    5    4    0.000244    0.005935
   -4   -4    0    6    4   -0.004238   -0.005645
   -4   -4    0    7    4    0.004972   -0.001185
   -4   -4    0    8    4    0.002375    0.000079
   -4   -4    0    1    5   -0.000657   -0.008578
   -4   -4    0    2    5    0.005587   -0.001662
   -4   -4    0    3    5   -0.012677    0.007329
   -4   -4    0    4    5   -0.008679   -0.005390
   -4   -4    0    5    5    0.009943    0.000578
   -4   -4    0    6    5    0.001876   -0.005714
   -4   -4    0    7    5    0.013783   -0.007916
   -4   -4    0    8    5    0.001766   -0.008311
   -4   -4    0    1    6    0.004924    0.010097
   -4   -4    0    2    6   -0.013183   -0.002622
   -4   -4    0    3    6    0.009733   -0.001000
   -4   -4    0    4    6   -0.009411    0.003982
   -4   -4    0    5    6   -0.009315   -0.002884
   -4   -4    0    6    6    0.002410    0.002683
   -4   -4    0    7    6   -0.004451   -0.008273
[...]
    6    3    0    2    7    0.004682    0.000364
    6    3    0    3    7   -0.003938    0.003295
    6    3    0    4    7   -0.003890   -0.000441
    6    3    0    5    7   -0.003968   -0.002597
    6    3    0    6    7    0.004064   -0.003731
    6    3    0    7    7    0.006998   -0.001388
    6    3    0    8    7   -0.004010   -0.001734
    6    3    0    1    8    0.001614    0.000143
    6    3    0    2    8   -0.002123    0.002680
    6    3    0    3    8    0.000399   -0.002761
    6    3    0    4    8   -0.001516   -0.000527
    6    3    0    5    8    0.002900   -0.002775
    6    3    0    6    8   -0.001129    0.004784
    6    3    0    7    8   -0.000115    0.001038
    6    3    0    8    8   -0.001388   -0.000200
    6    4    0    1    1    0.000437   -0.000270
    6    4    0    2    1    0.000246    0.003289
    6    4    0    3    1   -0.002041   -0.002580
    6    4    0    4    1    0.001399    0.001693
    6    4    0    5    1   -0.000159   -0.005029
    6    4    0    6    1    0.003040    0.004238
    6    4    0    7    1   -0.004093   -0.001940
    6    4    0    8    1    0.001241    0.002358
    6    4    0    1    2    0.000223   -0.001263
    6    4    0    2    2   -0.001696    0.002352
    6    4    0    3    2   -0.003849   -0.001817
    6    4    0    4    2   -0.002923   -0.005669
    6    4    0    5    2    0.001195    0.000340
    6    4    0    6    2    0.001366    0.000445
    6    4    0    7    2    0.006671    0.002594
    6    4    0    8    2   -0.000981   -0.007255
    6    4    0    1    3   -0.001118    0.000963
    6    4    0    2    3    0.000819    0.000540
    6    4    0    3    3    0.003429    0.001380
    6    4    0    4    3    0.000667    0.004036
    6    4    0    5    3    0.000378    0.000864
    6    4    0    6    3   -0.002550    0.000711
    6    4    0    7    3   -0.002813   -0.003656
    6    4    0    8    3   -0.001658    0.004046
    6    4    0    1    4    0.001032   -0.000596
    6    4    0    2    4    0.000707    0.003920
    6    4    0    3    4   -0.002569   -0.002182
    6    4    0    4    4   -0.002393   -0.000985
    6    4    0    5    4    0.000432   -0.005159
    6    4    0    6    4    0.002179    0.003889
    6    4    0    7    4    0.000029   -0.000335
    6    4    0    8    4   -0.000884   -0.001221
    6    4    0    1    5    0.000038    0.001937
    6    4    0    2    5    0.004484   -0.003115
    6    4    0    3    5    0.001517    0.000726
    6    4    0    4    5    0.005618    0.004180
    6    4    0    5    5   -0.004453   -0.000066
    6    4    0    6    5    0.001935   -0.001379
    6    4    0    7    5   -0.007635    0.001661
    6    4    0    8    5    0.003493    0.006349
    6    4    0    1    6    0.001380   -0.001498
    6    4    0    2    6    0.000303    0.001183
    6    4    0    3    6   -0.004861   -0.001609
    6    4    0    4    6    0.000079   -0.005571
    6    4    0    5    6   -0.000330   -0.000817
    6    4    0    6    6    0.004339   -0.000170
    6    4    0    7    6    0.002645    0.004958
    6    4    0    8    6    0.002344   -0.006168
    6    4    0    1    7   -0.002579   -0.000165
    6    4    0    2    7    0.001209   -0.004407
    6    4    0    3    7    0.003005    0.003166
    6    4    0    4    7   -0.001057    0.002011
    6    4    0    5    7   -0.002474    0.004851
    6    4    0    6    7   -0.004090   -0.005578
    6    4    0    7    7    0.003734   -0.001866
    6    4    0    8    7   -0.002675    0.002831
    6    4    0    1    8    0.000945   -0.000924
    6    4    0    2    8    0.003861    0.003720
    6    4    0    3    8   -0.004365   -0.000201
    6    4    0    4    8   -0.002772   -0.000525
    6    4    0    5    8   -0.000780   -0.006103
    6    4    0    6    8    0.005691    0.002508
    6    4    0    7    8   -0.002037    0.001308
    6    4    0    8    8   -0.001736   -0.000646
    6    5    0    1    1   -0.000430   -0.000254
    6    5    0    2    1    0.002381   -0.001345
    6    5    0    3    1   -0.003597    0.002113
    6    5    0    4    1    0.002491   -0.001162
    6    5    0    5    1   -0.002141    0.000604
    6    5    0    6    1    0.004831   -0.003010
    6    5    0    7    1   -0.003498    0.004328
    6    5    0    8    1    0.003717   -0.000590
    6    5    0    1    2   -0.001356   -0.001719
    6    5    0    2    2    0.001615    0.004271
    6    5    0    3    2   -0.001555    0.001787
    6    5    0    4    2   -0.006386    0.002553
    6    5    0    5    2   -0.002454   -0.000761
    6    5    0    6    2   -0.000755   -0.001222
    6    5    0    7    2    0.005789   -0.006202
    6    5    0    8    2   -0.008259   -0.001537
    6    5    0    1    3    0.000631    0.001350
    6    5    0    2    3    0.002607    0.000223
    6    5    0    3    3    0.000818   -0.002706
    6    5    0    4    3    0.006573    0.000198
    6    5    0    5    3    0.002823   -0.000710
    6    5    0    6    3    0.001215    0.003840
    6    5    0    7    3   -0.007938    0.002163
    6    5    0    8    3    0.005252    0.003189
    6    5    0    1    4   -0.000787   -0.000567
    6    5    0    2    4    0.005364    0.000008
    6    5    0    3    4   -0.003084    0.003718
    6    5    0    4    4   -0.002854    0.000048
    6    5    0    5    4   -0.005715   -0.002649
    6    5    0    6    4    0.003720   -0.002296
    6    5    0    7    4   -0.001479    0.000708
    6    5    0    8    4   -0.003033   -0.000648
    6    5    0    1    5    0.002387    0.000403
    6    5    0    2    5   -0.001261   -0.004826
    6    5    0    3    5    0.001721   -0.001130
    6    5    0    4    5    0.004785   -0.003075
    6    5    0    5    5    0.000960    0.004551
    6    5    0    6    5   -0.002052   -0.001790
    6    5    0    7    5   -0.002363    0.008508
    6    5    0    8    5    0.006189   -0.001081
    6    5    0    1    6   -0.000389   -0.001504
    6    5    0    2    6   -0.001471   -0.000168
    6    5    0    3    6   -0.001808    0.003753
    6    5    0    4    6   -0.006337   -0.001333
    6    5    0    5    6   -0.002961   -0.000410
    6    5    0    6    6    0.001594   -0.003780
    6    5    0    7    6    0.007961   -0.001216
    6    5    0    8    6   -0.005114   -0.004066
    6    5    0    1    7    0.000372   -0.000885
    6    5    0    2    7   -0.006289   -0.000343
    6    5    0    3    7    0.006292   -0.004177
    6    5    0    4    7    0.002514    0.001289
    6    5    0    5    7    0.005292    0.005404
    6    5    0    6    7   -0.007258    0.002457
    6    5    0    7    7    0.003836   -0.001380
    6    5    0    8    7    0.001268    0.000482
    6    5    0    1    8   -0.000628   -0.000169
    6    5    0    2    8    0.004578   -0.003736
    6    5    0    3    8   -0.001591    0.006668
    6    5    0    4    8   -0.002993   -0.000729
    6    5    0    5    8   -0.007190   -0.000272
    6    5    0    6    8    0.004008   -0.005839
    6    5    0    7    8   -0.001002    0.004472
    6    5    0    8    8   -0.002686   -0.000812
    6    6    0    1    1    0.001094    0.000000
    6    6    0    2    1   -0.003574   -0.001948
    6    6    0    3    1    0.002364    0.001253
    6    6    0    4    1   -0.002372   -0.001381
    6    6    0    5    1   -0.001853    0.002817
    6    6    0    6    1   -0.001903   -0.002310
    6    6    0    7    1    0.002382    0.003023
    6    6    0    8    1    0.000963   -0.001669
    6    6    0    1    2   -0.003574    0.001948
    6    6    0    2    2    0.005769    0.000000
    6    6    0    3    2   -0.001279    0.002311
    6    6    0    4    2    0.003332    0.006038
    6    6    0    5    2   -0.000321    0.000619
    6    6    0    6    2    0.000523   -0.000590
    6    6    0    7    2   -0.003686   -0.007972
    6    6    0    8    2   -0.002381    0.006642
    6    6    0    1    3    0.002364   -0.001253
    6    6    0    2    3   -0.001279   -0.002311
    6    6    0    3    3    0.002256   -0.000000
    6    6    0    4    3    0.001243   -0.005872
    6    6    0    5    3   -0.000490    0.001129
    6    6    0    6    3    0.001270   -0.001496
    6    6    0    7    3   -0.003071    0.009176
    6    6    0    8    3    0.003023   -0.005394
    6    6    0    1    4   -0.002372    0.001381
    6    6    0    2    4    0.003332   -0.006038
    6    6    0    3    4    0.001243    0.005872
    6    6    0    4    4    0.000342   -0.000000
    6    6    0    5    4    0.000059    0.004423
    6    6    0    6    4   -0.002322   -0.004755
    6    6    0    7    4    0.000116    0.003482
    6    6    0    8    4   -0.003287    0.000479
    6    6    0    1    5   -0.001853   -0.002817
    6    6    0    2    5   -0.000321   -0.000619
    6    6    0    3    5   -0.000490   -0.001129
    6    6    0    4    5    0.000059   -0.004423
    6    6    0    5    5    0.008743    0.000000
    6    6    0    6    5   -0.003301    0.000307
    6    6    0    7    5    0.005509    0.004672
    6    6    0    8    5   -0.002154   -0.005176
    6    6    0    1    6   -0.001903    0.002310
    6    6    0    2    6    0.000523    0.000590
    6    6    0    3    6    0.001270    0.001496
    6    6    0    4    6   -0.002322    0.004755
    6    6    0    5    6   -0.003301   -0.000307
    6    6    0    6    6   -0.001663   -0.000000
    6    6    0    7    6    0.002498   -0.008312
    6    6    0    8    6   -0.002717    0.005361
    6    6    0    1    7    0.002382   -0.003023
    6    6    0    2    7   -0.003686    0.007972
    6    6    0    3    7   -0.003071   -0.009176
    6    6    0    4    7    0.000116   -0.003482
    6    6    0    5    7    0.005509   -0.004672
    6    6    0    6    7    0.002498    0.008312
    6    6    0    7    7    0.004045   -0.000000
    6    6    0    8    7    0.003368   -0.001488
    6    6    0    1    8    0.000963    0.001669
    6    6    0    2    8   -0.002381   -0.006642
    6    6    0    3    8    0.003023    0.005394
    6    6    0    4    8   -0.003287   -0.000479
    6    6    0    5    8   -0.002154    0.005176
    6    6    0    6    8   -0.002717   -0.005361
    6    6    0    7    8    0.003368    0.001488
    6    6    0    8    8   -0.000544   -0.000000
    7    2    0    1    1   -0.000498   -0.000247
    7    2    0    2    1    0.001613   -0.000318
    7    2    0    3    1   -0.000768    0.001260
    7    2    0    4    1    0.001001   -0.000836
    7    2    0    5    1   -0.001267   -0.000013
    7    2    0    6    1    0.001647   -0.001933
    7    2    0    7    1   -0.001583    0.002936
    7    2    0    8    1    0.001153   -0.000483
    7    2    0    1    2   -0.002658    0.000651
    7    2    0    2    2    0.000473   -0.002256
    7    2    0    3    2    0.003894    0.000692
    7    2    0    4    2   -0.000768    0.003517
    7    2    0    5    2   -0.000112    0.000006
    7    2    0    6    2   -0.002522   -0.002555
    7    2    0    7    2    0.000631   -0.002681
    7    2    0    8    2   -0.001843    0.003006
    7    2    0    1    3    0.002525    0.000776
    7    2    0    2    3   -0.002814   -0.001315
    7    2    0    3    3   -0.000126   -0.001201
    7    2    0    4    3    0.001810   -0.003759
    7    2    0    5    3    0.000467    0.002294
    7    2    0    6    3    0.000224    0.001368
    7    2    0    7    3   -0.000041    0.003640
    7    2    0    8    3    0.002892   -0.002670
    7    2    0    1    4   -0.000302    0.000210
    7    2    0    2    4   -0.000505   -0.000084
    7    2    0    3    4    0.001406    0.000317
    7    2    0    4    4   -0.003373    0.001315
    7    2    0    5    4   -0.000058   -0.002095
    7    2    0    6    4   -0.000134    0.000452
    7    2    0    7    4   -0.000803   -0.000473
    7    2    0    8    4   -0.002868    0.001285
    7    2    0    1    5    0.002498   -0.001997
    7    2    0    2    5   -0.002723    0.000162
    7    2    0    3    5   -0.000288   -0.000101
    7    2    0    4    5   -0.000887   -0.002614
    7    2    0    5    5    0.001308    0.002678
    7    2    0    6    5    0.000518   -0.000306
    7    2    0    7    5    0.001163    0.003818
    7    2    0    8    5    0.001058   -0.002294
    7    2    0    1    6   -0.003591   -0.000231
    7    2    0    2    6    0.002843   -0.000978
    7    2    0    3    6    0.001947    0.002621
    7    2    0    4    6   -0.001378    0.002299
    7    2    0    5    6   -0.000136   -0.000123
    7    2    0    6    6   -0.001867   -0.003713
    7    2    0    7    6    0.001438   -0.001797
    7    2    0    8    6   -0.002636    0.001094
    7    2    0    1    7    0.000785   -0.001003
    7    2    0    2    7    0.000162    0.002641
    7    2    0    3    7   -0.002506   -0.003082
    7    2    0    4    7    0.001364   -0.004064
    7    2    0    5    7   -0.000507   -0.001121
    7    2    0    6    7    0.001759    0.003240
    7    2    0    7    7    0.003336    0.002389
    7    2    0    8    7    0.001950   -0.003556
    7    2    0    1    8    0.000281    0.000313
    7    2    0    2    8   -0.000798   -0.000733
    7    2    0    3    8    0.002165    0.000899
    7    2    0    4    8   -0.003103    0.001096
    7    2    0    5    8    0.000170   -0.001479
    7    2    0    6    8   -0.001282   -0.000361
    7    2    0    7    8   -0.000071   -0.000251
    7    2    0    8    8   -0.003526    0.001039
    7    3    0    1    1   -0.000072    0.000039
    7    3    0    2    1   -0.001057   -0.001894
    7    3    0    3    1    0.002300    0.001537
    7    3    0    4    1   -0.000855   -0.000767
    7    3    0    5    1    0.000889    0.003589
    7    3    0    6    1   -0.003141   -0.002539
    7    3    0    7    1    0.001171    0.002447
    7    3    0    8    1   -0.000318   -0.001087
    7    3    0    1    2   -0.001331    0.002361
    7    3    0    2    2   -0.000827   -0.002764
    7    3    0    3    2    0.002231   -0.002794
    7    3    0    4    2    0.004884    0.001582
    7    3    0    5    2   -0.002012    0.000949
    7    3    0    6    2   -0.002229    0.000532
    7    3    0    7    2   -0.002413   -0.001345
    7    3    0    8    2    0.003733    0.003161
    7    3    0    1    3    0.001794   -0.001326
    7    3    0    2    3   -0.002229    0.002051
    7    3    0    3    3   -0.001391    0.000080
    7    3    0    4    3   -0.002204   -0.003259
    7    3    0    5    3    0.002073    0.000212
    7    3    0    6    3    0.001238    0.000485
    7    3    0    7    3    0.001917    0.001847
    7    3    0    8    3   -0.000568   -0.004063
    7    3    0    1    4   -0.000124    0.000894
    7    3    0    2    4   -0.000447   -0.000553
    7    3    0    3    4    0.001680    0.000195
    7    3    0    4    4   -0.001398    0.000491
    7    3    0    5    4    0.000016   -0.000201
    7    3    0    6    4   -0.000746   -0.000054
    7    3    0    7    4   -0.002200    0.001689
    7    3    0    8    4   -0.001565    0.000792
    7    3    0    1    5   -0.000899   -0.002119
    7    3    0    2    5   -0.000683    0.003020
    7    3    0    3    5    0.000166    0.000391
    7    3    0    4    5   -0.003893    0.001279
    7    3    0    5    5    0.003501   -0.001645
    7    3    0    6    5    0.000333    0.000115
    7    3    0    7    5    0.002361    0.000557
    7    3    0    8    5   -0.003957   -0.000493
    7    3    0    1    6   -0.000613    0.002236
    7    3    0    2    6   -0.000721   -0.001602
    7    3    0    3    6    0.003172   -0.001802
    7    3    0    4    6    0.002903    0.002864
    7    3    0    5    6   -0.000597    0.001403
    7    3    0    6    6   -0.003647    0.000559
    7    3    0    7    6   -0.000732   -0.002410
    7    3    0    8    6    0.001495    0.003721
    7    3    0    1    7   -0.000480   -0.003421
    7    3    0    2    7    0.001945    0.002473
    7    3    0    3    7   -0.004116    0.000074
    7    3    0    4    7   -0.002541   -0.005197
    7    3    0    5    7   -0.000259   -0.002807
    7    3    0    6    7    0.003955    0.000453
    7    3    0    7    7    0.007848    0.002157
    7    3    0    8    7   -0.001447   -0.006087
    7    3    0    1    8    0.000899    0.000427
    7    3    0    2    8   -0.001843    0.000676
    7    3    0    3    8    0.001910   -0.000676
    7    3    0    4    8   -0.002340    0.000669
    7    3    0    5    8    0.001546   -0.000264
    7    3    0    6    8   -0.002015    0.001342
    7    3    0    7    8   -0.001477    0.001567
    7    3    0    8    8   -0.002154    0.000721
    7    4    0    1    1   -0.000159   -0.000012
    7    4    0    2    1   -0.002754    0.001294
    7    4    0    3    1    0.001890   -0.002224
    7    4    0    4    1   -0.000254    0.001113
    7    4    0    5    1    0.003828   -0.000613
    7    4    0    6    1   -0.003712    0.003322
    7    4    0    7    1    0.000461   -0.001214
    7    4    0    8    1   -0.000659    0.001054
    7    4    0    1    2    0.002117    0.000461
    7    4    0    2    2   -0.002981   -0.000522
    7    4    0    3    2   -0.001336   -0.003848
    7    4    0    4    2    0.003621   -0.003922
    7    4    0    5    2    0.000564    0.001414
    7    4    0    6    2    0.000691    0.001717
    7    4    0    7    2   -0.000331    0.004028
    7    4    0    8    2    0.005491   -0.002710
    7    4    0    1    3   -0.000670   -0.000580
    7    4    0    2    3    0.000362    0.002334
    7    4    0    3    3    0.000295    0.002187
    7    4    0    4    3   -0.003149    0.001000
    7    4    0    5    3    0.000994   -0.000597
    7    4    0    6    3   -0.000661   -0.000801
    7    4    0    7    3    0.001449   -0.002795
    7    4    0    8    3   -0.003403   -0.000773
    7    4    0    1    4    0.001123    0.000400
    7    4    0    2    4   -0.001151    0.001837
    7    4    0    3    4    0.000621   -0.001762
    7    4    0    4    4   -0.001851   -0.000578
    7    4    0    5    4    0.002135   -0.001293
    7    4    0    6    4   -0.000155    0.002507
    7    4    0    7    4   -0.001513    0.002465
    7    4    0    8    4   -0.001398   -0.000449
    7    4    0    1    5   -0.002000    0.000523
    7    4    0    2    5    0.003619    0.001604
    7    4    0    3    5    0.001519    0.000636
    7    4    0    4    5   -0.000838    0.006097
    7    4    0    5    5   -0.000899   -0.003766
    7    4    0    6    5    0.000499    0.000639
    7    4    0    7    5   -0.002787   -0.002880
    7    4    0    8    5   -0.003220    0.005736
    7    4    0    1    6    0.001677    0.000709
    7    4    0    2    6   -0.001372    0.000145
    7    4    0    3    6   -0.001020   -0.004464
    7    4    0    4    6    0.004381   -0.002032
    7    4    0    5    6    0.001046    0.000451
    7    4    0    6    6    0.000809    0.003162
    7    4    0    7    6   -0.002132    0.002273
    7    4    0    8    6    0.005537   -0.000018
    7    4    0    1    7   -0.003182   -0.003377
    7    4    0    2    7    0.004310   -0.000678
    7    4    0    3    7   -0.002112    0.004036
    7    4    0    4    7   -0.004080   -0.001377
    7    4    0    5    7   -0.003587   -0.001407
    7    4    0    6    7    0.002494   -0.004253
    7    4    0    7    7    0.008707   -0.000521
    7    4    0    8    7   -0.004678   -0.003387
    7    4    0    1    8    0.001759   -0.000488
    7    4    0    2    8   -0.000049    0.004005
    7    4    0    3    8   -0.001385   -0.002391
    7    4    0    4    8   -0.002184   -0.000075
    7    4    0    5    8    0.002141   -0.003898
    7    4    0    6    8    0.001528    0.004339
    7    4    0    7    8   -0.002287    0.002135
    7    4    0    8    8   -0.001766    0.000120
